# vtk DataFile Version 2
NuDG++ 2D simulation
ASCII
DATASET UNSTRUCTURED_GRID

POINTS 2244 double
 -1.656250060000e-01  -2.000000030000e-01  0.0
 -1.828125045000e-01  -1.772221997500e-01  0.0
 -2.000000030000e-01  -1.544443965000e-01  0.0
 -1.828125045000e-01  -2.000000030000e-01  0.0
 -2.000000030000e-01  -1.772221997500e-01  0.0
 -2.000000030000e-01  -2.000000030000e-01  0.0
 -6.428571790000e-02  -1.700000018000e-01  0.0
 -8.058035746000e-02  -1.850000024000e-01  0.0
 -9.687499702000e-02  -2.000000030000e-01  0.0
 -6.339285895000e-02  -1.850000024000e-01  0.0
 -7.968749851000e-02  -2.000000030000e-01  0.0
 -6.250000000000e-02  -2.000000030000e-01  0.0
 -2.000000030000e-01  -1.544443965000e-01  0.0
 -1.750000045000e-01  -1.379364989500e-01  0.0
 -1.500000060000e-01  -1.214286014000e-01  0.0
 -2.000000030000e-01  -1.316666491500e-01  0.0
 -1.750000045000e-01  -1.151587516000e-01  0.0
 -2.000000030000e-01  -1.088889018000e-01  0.0
 -1.500000060000e-01  -1.214286014000e-01  0.0
 -1.750000045000e-01  -1.379364989500e-01  0.0
 -2.000000030000e-01  -1.544443965000e-01  0.0
 -1.500000060000e-01  -1.457143016000e-01  0.0
 -1.750000045000e-01  -1.622221991500e-01  0.0
 -1.500000060000e-01  -1.700000018000e-01  0.0
 -1.500000060000e-01  -7.285714149000e-02  0.0
 -1.750000045000e-01  -9.087302164500e-02  0.0
 -2.000000030000e-01  -1.088889018000e-01  0.0
 -1.500000060000e-01  -9.714287144500e-02  0.0
 -1.750000045000e-01  -1.151587516000e-01  0.0
 -1.500000060000e-01  -1.214286014000e-01  0.0
  1.832975030000e+00  -4.625000060000e-02  0.0
  1.853987515000e+00  -1.231250018000e-01  0.0
  1.875000000000e+00  -2.000000030000e-01  0.0
  1.916487515000e+00  -7.187499851000e-02  0.0
  1.937500000000e+00  -1.487499997100e-01  0.0
  2.000000000000e+00  -9.749999642000e-02  0.0
 -1.500000060000e-01  -1.700000018000e-01  0.0
 -1.360000037000e-01  -1.525000036000e-01  0.0
 -1.220000014000e-01  -1.350000054000e-01  0.0
 -1.500000060000e-01  -1.457143016000e-01  0.0
 -1.360000037000e-01  -1.282143034000e-01  0.0
 -1.500000060000e-01  -1.214286014000e-01  0.0
  2.849999964000e-01  -2.333333530000e-02  0.0
  2.837499976000e-01  -8.166666795000e-02  0.0
  2.824999988000e-01  -1.400000006000e-01  0.0
  3.174999952000e-01  -4.666666780000e-02  0.0
  3.162499964000e-01  -1.050000004500e-01  0.0
  3.499999940000e-01  -7.000000030000e-02  0.0
 -1.071429029000e-01  -1.700000018000e-01  0.0
 -8.571431040000e-02  -1.700000018000e-01  0.0
 -6.428571790000e-02  -1.700000018000e-01  0.0
 -9.857145324000e-02  -1.525000036000e-01  0.0
 -7.714286074000e-02  -1.525000036000e-01  0.0
 -9.000000358000e-02  -1.350000054000e-01  0.0
 -1.312499940000e-01  -2.000000030000e-01  0.0
 -1.191964484500e-01  -1.850000024000e-01  0.0
 -1.071429029000e-01  -1.700000018000e-01  0.0
 -1.406250000000e-01  -1.850000024000e-01  0.0
 -1.285714544500e-01  -1.700000018000e-01  0.0
 -1.500000060000e-01  -1.700000018000e-01  0.0
 -1.220000014000e-01  -1.350000054000e-01  0.0
 -1.060000024900e-01  -1.350000054000e-01  0.0
 -9.000000358000e-02  -1.350000054000e-01  0.0
 -1.185000017500e-01  -1.175000034500e-01  0.0
 -1.025000028400e-01  -1.175000034500e-01  0.0
 -1.150000021000e-01  -1.000000015000e-01  0.0
 -9.000000358000e-02  -1.350000054000e-01  0.0
 -1.060000024900e-01  -1.350000054000e-01  0.0
 -1.220000014000e-01  -1.350000054000e-01  0.0
 -9.857145324000e-02  -1.525000036000e-01  0.0
 -1.145714521500e-01  -1.525000036000e-01  0.0
 -1.071429029000e-01  -1.700000018000e-01  0.0
 -7.778175920000e-02  -9.192386270000e-02  0.0
 -9.639088065000e-02  -9.596193210000e-02  0.0
 -1.150000021000e-01  -1.000000015000e-01  0.0
 -8.389088139000e-02  -1.134619340500e-01  0.0
 -1.025000028400e-01  -1.175000034500e-01  0.0
 -9.000000358000e-02  -1.350000054000e-01  0.0
 -1.220000014000e-01  -1.350000054000e-01  0.0
 -1.185000017500e-01  -1.175000034500e-01  0.0
 -1.150000021000e-01  -1.000000015000e-01  0.0
 -1.360000037000e-01  -1.282143034000e-01  0.0
 -1.325000040500e-01  -1.107143014500e-01  0.0
 -1.500000060000e-01  -1.214286014000e-01  0.0
 -7.778175920000e-02  -9.192386270000e-02  0.0
 -8.389088139000e-02  -1.134619340500e-01  0.0
 -9.000000358000e-02  -1.350000054000e-01  0.0
 -6.639088876500e-02  -1.022535823500e-01  0.0
 -7.250001095500e-02  -1.237916537000e-01  0.0
 -5.500001833000e-02  -1.125833020000e-01  0.0
 -1.071429029000e-01  -1.700000018000e-01  0.0
 -1.145714521500e-01  -1.525000036000e-01  0.0
 -1.220000014000e-01  -1.350000054000e-01  0.0
 -1.285714544500e-01  -1.700000018000e-01  0.0
 -1.360000037000e-01  -1.525000036000e-01  0.0
 -1.500000060000e-01  -1.700000018000e-01  0.0
  6.250000093000e-03  -2.000000030000e-01  0.0
  4.062500153650e-02  -2.000000030000e-01  0.0
  7.500000298000e-02  -2.000000030000e-01  0.0
  1.383928512150e-02  -1.850000024000e-01  0.0
  4.821428656500e-02  -1.850000024000e-01  0.0
  2.142857015000e-02  -1.700000018000e-01  0.0
 -1.500000060000e-01  -7.285714149000e-02  0.0
 -1.500000060000e-01  -9.714287144500e-02  0.0
 -1.500000060000e-01  -1.214286014000e-01  0.0
 -1.325000040500e-01  -8.642857149500e-02  0.0
 -1.325000040500e-01  -1.107143014500e-01  0.0
 -1.150000021000e-01  -1.000000015000e-01  0.0
 -2.000000030000e-01  -6.333333254000e-02  0.0
 -1.750000045000e-01  -6.809523701500e-02  0.0
 -1.500000060000e-01  -7.285714149000e-02  0.0
 -1.750000045000e-01  -4.380952660000e-02  0.0
 -1.500000060000e-01  -4.857143107500e-02  0.0
 -1.500000060000e-01  -2.428572066000e-02  0.0
 -2.000000030000e-01  -6.333333254000e-02  0.0
 -2.000000030000e-01  -8.611111717000e-02  0.0
 -2.000000030000e-01  -1.088889018000e-01  0.0
 -1.750000045000e-01  -6.809523701500e-02  0.0
 -1.750000045000e-01  -9.087302164500e-02  0.0
 -1.500000060000e-01  -7.285714149000e-02  0.0
 -2.000000030000e-01  -6.333333254000e-02  0.0
 -1.750000045000e-01  -4.380952660000e-02  0.0
 -1.500000060000e-01  -2.428572066000e-02  0.0
 -2.000000030000e-01  -4.055555630500e-02  0.0
 -1.750000045000e-01  -2.103175036500e-02  0.0
 -2.000000030000e-01  -1.777778007000e-02  0.0
 -1.500000060000e-01  -2.428572066000e-02  0.0
 -1.500000060000e-01  -4.857143107500e-02  0.0
 -1.500000060000e-01  -7.285714149000e-02  0.0
 -1.281259023000e-01  -2.896608505500e-02  0.0
 -1.281259023000e-01  -5.325179547000e-02  0.0
 -1.062517986000e-01  -3.364644945000e-02  0.0
 -1.099999994000e-01   1.996667010000e-08  0.0
 -1.300000027000e-01  -1.214285034666e-02  0.0
 -1.500000060000e-01  -2.428572066000e-02  0.0
 -1.081258990000e-01  -1.682321474166e-02  0.0
 -1.281259023000e-01  -2.896608505500e-02  0.0
 -1.062517986000e-01  -3.364644945000e-02  0.0
 -1.500000060000e-01  -2.428572066000e-02  0.0
 -1.500000060000e-01   0.000000000000e+00  0.0
 -1.500000060000e-01   2.428572066000e-02  0.0
 -1.750000045000e-01  -2.103175036500e-02  0.0
 -1.750000045000e-01   3.253970295000e-03  0.0
 -2.000000030000e-01  -1.777778007000e-02  0.0
 -1.500000060000e-01  -7.285714149000e-02  0.0
 -1.226314045700e-01  -6.892856210000e-02  0.0
 -9.526280314000e-02  -6.499998271000e-02  0.0
 -1.281259023000e-01  -5.325179547000e-02  0.0
 -1.007573008700e-01  -4.932321608000e-02  0.0
 -1.062517986000e-01  -3.364644945000e-02  0.0
  3.499999940000e-01   1.400000006000e-01  0.0
  4.021931737500e-01   1.224999986500e-01  0.0
  4.543863535000e-01   1.049999967000e-01  0.0
  4.187500029500e-01   1.749999970000e-01  0.0
  4.709431827000e-01   1.574999950500e-01  0.0
  4.875000119000e-01   2.099999934000e-01  0.0
 -7.101409137000e-02  -4.349999130000e-02  0.0
 -8.313844725500e-02  -5.424998700500e-02  0.0
 -9.526280314000e-02  -6.499998271000e-02  0.0
 -6.449843011500e-02  -5.250913650000e-02  0.0
 -7.662278600000e-02  -6.325913220500e-02  0.0
 -5.798276886000e-02  -6.151828170000e-02  0.0
 -9.526280314000e-02  -6.499998271000e-02  0.0
 -1.226314045700e-01  -6.892856210000e-02  0.0
 -1.500000060000e-01  -7.285714149000e-02  0.0
 -1.051314026200e-01  -8.249999210500e-02  0.0
 -1.325000040500e-01  -8.642857149500e-02  0.0
 -1.150000021000e-01  -1.000000015000e-01  0.0
 -6.181925908000e-02  -1.656441018000e-02  0.0
 -7.051259093000e-02  -1.954082492500e-02  0.0
 -7.920592278000e-02  -2.251723967000e-02  0.0
 -5.862244405000e-02  -2.428220026000e-02  0.0
 -6.731577590000e-02  -2.725861500500e-02  0.0
 -5.542562902000e-02  -3.199999034000e-02  0.0
 -7.920592278000e-02  -2.251723967000e-02  0.0
 -9.272886069000e-02  -2.808184456000e-02  0.0
 -1.062517986000e-01  -3.364644945000e-02  0.0
 -7.511000707500e-02  -3.300861548500e-02  0.0
 -8.863294498500e-02  -3.857322037500e-02  0.0
 -7.101409137000e-02  -4.349999130000e-02  0.0
 -7.101409137000e-02  -4.349999130000e-02  0.0
 -6.321986019500e-02  -3.774999082000e-02  0.0
 -5.542562902000e-02  -3.199999034000e-02  0.0
 -7.511000707500e-02  -3.300861548500e-02  0.0
 -6.731577590000e-02  -2.725861500500e-02  0.0
 -7.920592278000e-02  -2.251723967000e-02  0.0
 -7.920592278000e-02  -2.251723967000e-02  0.0
 -9.460296109000e-02  -1.125860985166e-02  0.0
 -1.099999994000e-01   1.996667010000e-08  0.0
 -9.272886069000e-02  -2.808184456000e-02  0.0
 -1.081258990000e-01  -1.682321474166e-02  0.0
 -1.062517986000e-01  -3.364644945000e-02  0.0
 -7.778175920000e-02  -9.192386270000e-02  0.0
 -6.788226403000e-02  -7.672107220000e-02  0.0
 -5.798276886000e-02  -6.151828170000e-02  0.0
 -8.652228117000e-02  -7.846192270500e-02  0.0
 -7.662278600000e-02  -6.325913220500e-02  0.0
 -9.526280314000e-02  -6.499998271000e-02  0.0
 -7.101409137000e-02  -4.349999130000e-02  0.0
 -8.863294498500e-02  -3.857322037500e-02  0.0
 -1.062517986000e-01  -3.364644945000e-02  0.0
 -8.313844725500e-02  -5.424998700500e-02  0.0
 -1.007573008700e-01  -4.932321608000e-02  0.0
 -9.526280314000e-02  -6.499998271000e-02  0.0
 -7.778175920000e-02  -9.192386270000e-02  0.0
 -8.652228117000e-02  -7.846192270500e-02  0.0
 -9.526280314000e-02  -6.499998271000e-02  0.0
 -9.639088065000e-02  -9.596193210000e-02  0.0
 -1.051314026200e-01  -8.249999210500e-02  0.0
 -1.150000021000e-01  -1.000000015000e-01  0.0
[...]
POINT_DATA 2244
SCALARS field1 double 1
LOOKUP_TABLE default
  2.028751584263e-03 
  4.753274437400e-02 
  9.303673716374e-02 
  1.245021329008e-03 
  4.674901411875e-02 
  4.612910737538e-04 
  1.895184192479e-01 
  9.547476398184e-02 
  1.431108715729e-03 
  9.551822647972e-02 
  1.474571213615e-03 
  1.518033711500e-03 
  9.151473365038e-02 
  1.184638901207e-01 
  1.454130465910e-01 
  1.266266310125e-01 
  1.535757874828e-01 
  1.617385283746e-01 
  1.469785825595e-01 
  1.185006402572e-01 
  9.002269795490e-02 
  1.200963874357e-01 
  9.161844513341e-02 
  9.321419231192e-02 
  1.973387695894e-01 
  1.795811296262e-01 
  1.618234896629e-01 
  1.726626684605e-01 
  1.549050284973e-01 
  1.479865673316e-01 
  2.143444235593e-01 
  1.275892290746e-01 
  4.083403458981e-02 
  2.029036373070e-01 
  1.161484428222e-01 
  1.914628510547e-01 
  9.484814477635e-02 
  1.259369978958e-01 
  1.570258510152e-01 
  1.214137169846e-01 
  1.525025701040e-01 
  1.479792891928e-01 
  1.738659630464e-01 
  1.853077755784e-01 
  1.967495881104e-01 
  1.796170875874e-01 
  1.910589001194e-01 
  1.853682121284e-01 
  1.504462102000e-01 
  1.683143391055e-01 
  1.861824680111e-01 
  1.622515534550e-01 
  1.801196823606e-01 
  1.740568967101e-01 
  2.616566517477e-03 
  7.674753385808e-02 
  1.508785011987e-01 
  4.814854672004e-02 
  1.222795140606e-01 
  9.368052692261e-02 
  1.535359836133e-01 
  1.617258904101e-01 
  1.699157972069e-01 
  1.644226115160e-01 
  1.726125183127e-01 
  1.753092394186e-01 
  1.716571651676e-01 
  1.627364310771e-01 
  1.538156969866e-01 
  1.612653866611e-01 
  1.523446525705e-01 
  1.508736081545e-01 
  2.004841263222e-01 
  1.875690035787e-01 
  1.746538808353e-01 
  1.859391211377e-01 
  1.730239983943e-01 
  1.713941159533e-01 
  1.540463020448e-01 
  1.656924777636e-01 
  1.773386534823e-01 
  1.521206357921e-01 
  1.637668115108e-01 
  1.501949695394e-01 
  2.008539430748e-01 
  1.870600482650e-01 
  1.732661534552e-01 
  2.098256727701e-01 
  1.960317779602e-01 
  2.187974024653e-01 
  1.495622093862e-01 
  1.528604260915e-01 
  1.561586427968e-01 
  1.222142771716e-01 
  1.255124938769e-01 
  9.486634495702e-02 
  1.580154024267e-03 
  2.207614145647e-03 
  2.835074267026e-03 
  1.108535385025e-01 
  1.114809986239e-01 
  2.201269229807e-01 
  1.967930093051e-01 
  1.733370955966e-01 
  1.498811818881e-01 
  1.877089038375e-01 
  1.642529901290e-01 
  1.786247983699e-01 
  2.105661453136e-01 
  2.028434657410e-01 
  1.951207861683e-01 
  2.133230719872e-01 
  2.056003924146e-01 
  2.160799986609e-01 
  2.094955894554e-01 
  1.861909995225e-01 
  1.628864095897e-01 
  2.029426644783e-01 
  1.796380745455e-01 
  1.963897395013e-01 
  2.108281418099e-01 
  2.138882687856e-01 
  2.169483957613e-01 
  2.223852226831e-01 
  2.254453496589e-01 
  2.339423035564e-01 
  2.146915562609e-01 
  2.056238385623e-01 
  1.965561208638e-01 
  1.914934263897e-01 
  1.824257086911e-01 
  1.682952965185e-01 
  1.479711202104e-01 
  1.810581968563e-01 
  2.141452735021e-01 
  1.578962048649e-01 
  1.909832815107e-01 
  1.678212895194e-01 
  2.130270862600e-01 
  2.136172106931e-01 
  2.142073351261e-01 
  2.242506879930e-01 
  2.248408124260e-01 
  2.354742897259e-01 
  1.960177376046e-01 
  1.875443268276e-01 
  1.790709160506e-01 
  1.818885826443e-01 
  1.734151718673e-01 
  1.677594276840e-01 
  2.008108999170e-01 
  2.100519412647e-01 
  2.192929826123e-01 
  1.195051979597e-01 
  1.287462393074e-01 
  3.819949600244e-02 
  1.456863731123e-01 
  1.639923213332e-01 
  1.822982695542e-01 
  1.697151982238e-01 
  1.880211464447e-01 
  1.937440233353e-01 
  1.800496621482e-01 
  1.880198370769e-01 
  1.959900120055e-01 
  1.794412035181e-01 
  1.874113784467e-01 
  1.788327448879e-01 
  4.887392655903e-02 
  8.070236635928e-02 
  1.125308061595e-01 
  6.465948564520e-02 
  9.648792544544e-02 
  8.044504473136e-02 
  1.106952373795e-01 
  1.387001614744e-01 
  1.667050855693e-01 
  1.280253893812e-01 
  1.560303134761e-01 
  1.453555413829e-01 
  1.451623775205e-01 
  1.134962236001e-01 
  8.183006967979e-02 
  1.282803483659e-01 
  9.661419444553e-02 
  1.113983192113e-01 
  1.100136942510e-01 
  1.284306366569e-01 
  1.468475790628e-01 
  1.386600811610e-01 
  1.570770235669e-01 
  1.673064680710e-01 
  2.013554439869e-01 
  1.981262852395e-01 
  1.948971264920e-01 
  1.915821081317e-01 
  1.883529493843e-01 
  1.818087722766e-01 
  1.463897701095e-01 
  1.564402656728e-01 
  1.664907612361e-01 
  1.641889400015e-01 
  1.742394355648e-01 
  1.819881098934e-01 
  1.993712051613e-01 
  1.903378152117e-01 
  1.813044252621e-01 
  1.880011451460e-01 
  1.789677551964e-01 
  1.766310851308e-01 
  1.116392182424e-01 
  8.036752994363e-02 
  4.909584164482e-02 
  1.011401029305e-01 
  6.986841463170e-02 
  9.064098761857e-02 
  2.167373582013e-01 
  1.957486054986e-01 
  1.747598527960e-01 
  2.015293815115e-01 
  1.805406288089e-01 
  1.863214048218e-01 
  1.936023409279e-01 
  1.976989241331e-01 
  2.017955073383e-01 
  1.786686065342e-01 
  1.827651897394e-01 
  1.637348721406e-01 
  2.266260193095e-01 
  2.189411060605e-01 
  2.112561928115e-01 
  2.335335069269e-01 
  2.258485936779e-01 
  2.404409945443e-01 
  2.240892097258e-01 
  2.195298926379e-01 
  2.149705755500e-01 
  2.053457546017e-01 
  2.007864375138e-01 
  1.866022994775e-01 
  2.005507536230e-01 
  2.180673786799e-01 
  2.355840037367e-01 
  1.975793616837e-01 
  2.150959867406e-01 
  1.946079697444e-01 
  2.363918895072e-01 
  2.184653403355e-01 
  2.005387911637e-01 
  2.271732161236e-01 
  2.092466669518e-01 
  2.179545427399e-01 
  2.724576231399e-01 
  2.554563137112e-01 
  2.384550042826e-01 
  2.439527639582e-01 
  2.269514545295e-01 
  2.154479047764e-01 
  1.963854782889e-01 
  1.951055711877e-01 
  1.938256640865e-01 
  2.176169913026e-01 
  2.163370842014e-01 
  2.388485043163e-01 
  2.140263015178e-01 
  2.197218779760e-01 
  2.254174544342e-01 
  2.434950277603e-01 
  2.491906042185e-01 
  2.729637540028e-01 
  2.258156665861e-01 
  2.063353118274e-01 
  1.868549570687e-01 
  2.181958517911e-01 
  1.987154970324e-01 
  2.105760369960e-01 
  2.887641523952e-01 
  2.816445995526e-01 
  2.745250467100e-01 
  2.576819566557e-01 
  2.505624038131e-01 
  2.265997609162e-01 
  1.259534656368e-03 
  1.155985245432e-01 
  2.299375144300e-01 
  8.384921320732e-04 
  1.151774820189e-01 
  4.174496077781e-04 
  2.781041892802e-01 
  2.542107381766e-01 
  2.303172870729e-01 
  2.507359723206e-01 
  2.268425212170e-01 
  2.233677553610e-01 
  2.310840292223e-01 
  2.543269053551e-01 
  2.775697814879e-01 
  2.592354567082e-01 
  2.824783328411e-01 
  2.873868841942e-01 
  2.224751411677e-01 
  2.263362280519e-01 
  2.301973149361e-01 
  1.131454697793e-01 
  1.170065566635e-01 
  3.815798390889e-03 
  2.750025621822e-01 
  2.505383873327e-01 
  2.260742124832e-01 
  2.576440896464e-01 
  2.331799147969e-01 
  2.402856171106e-01 
  2.742912127928e-01 
  2.516624743095e-01 
  2.290337358263e-01 
  2.805727508872e-01 
  2.579440124039e-01 
  2.868542889816e-01 
  2.871993363808e-01 
  2.573466318955e-01 
  2.274939274102e-01 
  2.623437995148e-01 
  2.324910950295e-01 
  2.374882626488e-01 
  2.110795443646e-01 
  2.123403505013e-01 
  2.136011566381e-01 
  2.257189543345e-01 
  2.269797604713e-01 
  2.403583643045e-01 
  1.953846377475e-01 
  2.184444745786e-01 
  2.415043114098e-01 
  2.102033852280e-01 
  2.332632220591e-01 
  2.250221327085e-01 
 -1.140897628198e-03 
  4.128546891113e-02 
  8.371183545047e-02 
  1.552388615905e-03 
  4.397875515524e-02 
  4.245674860007e-03 
  8.276049979748e-02 
  1.132763062843e-01 
  1.437921127711e-01 
  1.140532729380e-01 
  1.445690794248e-01 
  1.453460460786e-01 
  1.820860404249e-01 
  9.422723016035e-02 
  6.368419895759e-03 
  9.048847664988e-02 
  2.629666385291e-03 
 -1.109087125177e-03 
 -2.420424871619e-03 
  7.099224572635e-03 
  1.661887401689e-02 
  2.283496745561e-02 
  3.235461689986e-02 
  4.809035978283e-02 
  5.491007059285e-04 
 -1.458576721026e-03 
 -3.466254147980e-03 
  3.944816871569e-02 
  3.744049128874e-02 
  7.834723672545e-02 
  1.648910275527e-01 
  8.358093454055e-02 
  2.270841528401e-03 
  1.352464510567e-01 
  5.393635804457e-02 
  1.056018745607e-01 
  8.334780970280e-02 
  1.157102396408e-01 
  1.480726695788e-01 
  4.447768796772e-02 
  7.684011790570e-02 
  5.607566232633e-03 
 -4.270595229464e-03 
  2.193407648851e-02 
  4.813874820648e-02 
  3.703104433862e-02 
  6.323571605659e-02 
  7.833268390670e-02 
  1.717159992570e-03 
  1.836627814307e-03 
  1.956095636043e-03 
  1.132637574164e-01 
  1.133832252381e-01 
  2.248103548402e-01 
  2.553340140568e-03 
  1.175500342586e-01 
  2.325467283765e-01 
  2.280287998922e-03 
  1.172769821169e-01 
  2.007235857276e-03 
  2.222236736290e-01 
  1.151817011606e-01 
  8.139728692248e-03 
  2.090608159945e-01 
  1.020188435262e-01 
  1.958979583601e-01 
  1.120123649720e-03 
  7.718108686382e-02 
  1.532420500779e-01 
  2.896032369723e-03 
  7.895699558382e-02 
  4.671941089726e-03 
  4.448400713817e-03 
  9.998165968912e-02 
  1.955149186644e-01 
  1.138100039089e-01 
  2.093432628842e-01 
  2.231716071040e-01 
  2.119429814325e-01 
  1.096058778651e-01 
  7.268774297737e-03 
  2.132252740401e-01 
  1.108881704727e-01 
  2.145075666477e-01 
  1.540788052099e-01 
  7.757104039655e-02 
  1.063275583235e-03 
  7.851233315104e-02 
  2.004568337725e-03 
  2.945861092216e-03 
  7.516263000531e-03 
  7.934082706562e-02 
  1.511653911307e-01 
  1.010384113442e-01 
  1.728629754093e-01 
  1.945605596879e-01 
  1.477267363496e-01 
  1.711705545395e-01 
  1.946143727294e-01 
  1.715750089499e-01 
  1.950188271398e-01 
  1.954232815502e-01 
  1.900889988286e-01 
  9.849915171268e-02 
  6.909304596755e-03 
  1.994326718935e-01 
  1.078428247776e-01 
  2.087763449584e-01 
  2.858037063590e-01 
  2.615525543160e-01 
  2.373014022729e-01 
  2.611690765254e-01 
  2.369179244824e-01 
  2.365344466919e-01 
  1.458446194527e-01 
  1.446560497934e-01 
  1.434674801342e-01 
  1.703051016835e-01 
  1.691165320243e-01 
  1.947655839144e-01 
  1.034820950289e-03 
  2.714643816122e-03 
  4.394466681956e-03 
  9.715988664009e-02 
  9.883970950592e-02 
  1.932849523299e-01 
  1.478650772683e-02 
  6.851091497857e-03 
 -1.084324731116e-03 
  6.620069355622e-03 
 -1.315346873351e-03 
 -1.546369015587e-03 
  2.095682249115e-01 
  2.112142324375e-01 
  2.128602399635e-01 
  1.889740720420e-01 
  1.906200795680e-01 
  1.683799191725e-01 
  2.160945386422e-01 
  2.246844686480e-01 
  2.332743986539e-01 
  2.255581463860e-01 
  2.341480763919e-01 
  2.350217541299e-01 
  2.321057558499e-01 
  2.208742944091e-01 
  2.096428329683e-01 
  2.211298827561e-01 
  2.098984213153e-01 
  2.101540096624e-01 
  2.084329948324e-01 
  2.203546345587e-01 
  2.322762742851e-01 
  2.108005901488e-01 
  2.227222298752e-01 
  2.131681854653e-01 
  2.097757891897e-01 
  2.103970169762e-01 
  2.110182447628e-01 
  1.864633155201e-01 
  1.870845433066e-01 
  1.631508418504e-01 
  2.098913314526e-02 
  8.379073886627e-03 
 -4.230985372009e-03 
  1.108102901603e-01 
  9.820023090168e-02 
  2.006314471754e-01 
  2.134132181168e-01 
  1.809906423107e-01 
  1.485680665047e-01 
  1.905003707571e-01 
  1.580777949510e-01 
  1.675875233973e-01 
  2.128951478340e-01 
  2.128528959069e-01 
  2.128106439799e-01 
  1.806798390272e-01 
  1.806375871002e-01 
  1.484645302205e-01 
  1.081191287797e-01 
  1.374206750029e-01 
  1.667222212261e-01 
  1.279111410652e-01 
  1.572126872884e-01 
  1.477031533508e-01 
  1.540974174401e-01 
  1.312704629351e-01 
  1.084435084300e-01 
  1.220650872013e-01 
  9.923813269627e-02 
  9.003275696251e-02 
  1.652736160437e-01 
  1.585808191800e-01 
  1.518880223162e-01 
  1.714234466531e-01 
  1.647306497894e-01 
  1.775732772625e-01 
  1.515241141488e-01 
  1.583459464553e-01 
  1.651677787618e-01 
  1.301737558881e-01 
  1.369955881946e-01 
  1.088233976275e-01 
  1.984656035209e-01 
  1.876780770480e-01 
  1.768905505752e-01 
  2.000530215748e-01 
  1.892654951019e-01 
  2.016404396287e-01 
  1.675321878687e-01 
  1.718691883407e-01 
  1.762061888127e-01 
  1.886349871523e-01 
  1.929719876243e-01 
  2.097377864358e-01 
  1.088527418913e-01 
  9.952022466023e-02 
  9.018770742918e-02 
  7.841252578232e-02 
  6.908000855127e-02 
  4.797230967337e-02 
  1.079807629893e-01 
  1.278037949697e-01 
  1.476268269501e-01 
  9.943934781227e-02 
  1.192623797927e-01 
  9.089793263521e-02 
  1.469902352997e-01 
  1.284758012687e-01 
  1.099613672376e-01 
  1.191096744311e-01 
  1.005952404000e-01 
  9.122911356242e-02 
  2.095776015100e-01 
  1.933253120910e-01 
  1.770730226720e-01 
  1.980998929570e-01 
  1.818476035380e-01 
  1.866221844040e-01 
  1.615597424980e-01 
  1.568728351238e-01 
  1.521859277496e-01 
  1.266839389463e-01 
  1.219970315722e-01 
  9.180813539474e-02 
  1.620767051428e-01 
  1.867330500097e-01 
  2.113893948767e-01 
  1.582169978197e-01 
  1.828733426867e-01 
  1.543572904967e-01 
  9.095177562979e-02 
  9.879946373241e-02 
  1.066471518350e-01 
  4.560358342790e-02 
  5.345127153053e-02 
  2.553912260191e-04 
  1.083575695112e-01 
  9.947307064320e-02 
  9.058857177518e-02 
  1.311496658384e-01 
  1.222651669703e-01 
  1.539417621655e-01 
  1.738791492087e-01 
  9.003711694597e-02 
  6.195084683220e-03 
  8.668446904708e-02 
  2.842436784324e-03 
 -5.102111145722e-04 
  1.685060628274e-02 
  9.477532621944e-03 
  2.104458961149e-03 
  1.150088369798e-01 
  1.076357633190e-01 
  2.131670676768e-01 
  1.558860270959e-01 
  1.580445817094e-01 
  1.602031363228e-01 
  1.322300949314e-01 
  1.343886495449e-01 
  1.085741627669e-01 
  1.938653140188e-01 
  9.550501945550e-02 
 -2.855275107835e-03 
  1.068515831761e-01 
  8.491288612787e-03 
  1.983785233341e-02 
  1.824327325715e-01 
  1.894697511139e-01 
  1.965067696562e-01 
  1.806616595753e-01 
  1.876986781177e-01 
  1.788905865792e-01 
  1.959140905361e-01 
  1.902514277663e-01 
  1.845887649966e-01 
  1.870271816912e-01 
  1.813645189215e-01 
  1.781402728464e-01 
  1.556382201330e-01 
  1.686263732917e-01 
  1.816145264503e-01 
  1.610993362041e-01 
  1.740874893628e-01 
  1.665604522752e-01 
  1.778592366175e-01 
  1.676894399999e-01 
  1.575196433822e-01 
  1.805383203290e-01 
  1.703685237113e-01 
  1.832174040404e-01 
  1.696367626210e-01 
  1.765492639533e-01 
  1.834617652856e-01 
  1.855186014937e-01 
  1.924311028261e-01 
  2.014004403665e-01 
  1.585998218832e-01 
  1.606764551804e-01 
  1.627530884776e-01 
  1.329406631380e-01 
  1.350172964351e-01 
  1.072815043927e-01 
  1.966615141108e-01 
  2.070597293040e-01 
  2.174579444971e-01 
  1.887905805382e-01 
  1.991887957313e-01 
  1.809196469655e-01 
  1.857415934779e-01 
  1.720588443587e-01 
  1.583760952396e-01 
  1.717616117342e-01 
  1.580788626150e-01 
  1.577816299905e-01 
  2.102739147780e-01 
  1.985563711028e-01 
  1.868388274277e-01 
  1.836313118782e-01 
  1.719137682031e-01 
  1.569887089784e-01 
  1.730577953616e-01 
  1.861376522399e-01 
  1.992175091183e-01 
  9.135794442509e-02 
  1.044378013034e-01 
  9.658093488597e-03 
  1.765038702329e-01 
  1.647650159787e-01 
  1.530261617246e-01 
  1.887872042179e-01 
  1.770483499638e-01 
  2.010705382029e-01 
  5.068102028259e-02 
  1.315851999865e-01 
  2.124893796903e-01 
  1.115011088348e-01 
  1.924052885387e-01 
  1.723211973871e-01 
  1.604611335822e-02 
  7.541317552808e-03 
 -9.634782526059e-04 
  3.214284420885e-02 
  2.363804840343e-02 
  4.823957505947e-02 
  1.463544139796e-02 
  6.431558512257e-03 
 -1.772324373448e-03 
  7.074621788714e-03 
 -1.129261096991e-03 
 -4.861978205335e-04 
  4.885126145784e-02 
  2.478590971687e-02 
  7.205579758985e-04 
  6.813134819555e-02 
  4.406599645458e-02 
  8.741143493326e-02 
  1.345210094339e-01 
  1.113697729251e-01 
  8.821853641624e-02 
  6.661108614307e-02 
  4.345984963423e-02 
 -1.298837147775e-03 
  1.382672756557e-01 
  1.705124450105e-01 
  2.027576143653e-01 
  1.464706933552e-01 
  1.787158627099e-01 
  1.546741110546e-01 
  1.366750033797e-01 
  1.462800725707e-01 
  1.558851417617e-01 
  1.129191748670e-01 
  1.225242440580e-01 
  8.916334635422e-02 
  8.955315849555e-04 
  2.488195386288e-02 
  4.886837614080e-02 
  5.689545745554e-05 
  2.404331773538e-02 
 -7.817406700444e-04 
  1.092475405200e-01 
  7.879809194075e-02 
  4.834864336151e-02 
  9.901760811765e-02 
  6.856815953841e-02 
  8.878767571530e-02 
 -9.063735245349e-04 
  4.188164984457e-04 
  1.744006521426e-03 
  6.702136777406e-02 
  6.834655779705e-02 
  1.349491090727e-01 
  2.173507441917e-01 
  1.118441601306e-01 
  6.337576069408e-03 
  2.076683472531e-01 
  1.021617631919e-01 
  1.979859503145e-01 
  1.856483722656e-01 
  1.369825670193e-01 
  8.831676177289e-02 
  1.944150659331e-01 
  1.457492606868e-01 
  2.031817596006e-01 
  9.167443460122e-02 
  4.692125688213e-02 
  2.168079163034e-03 
  9.146102022050e-02 
  4.670784250140e-02 
  9.124760583977e-02 
  2.023628194444e-01 
  1.017562986233e-01 
  1.149777802195e-03 
  1.035937034943e-01 
  2.987182673167e-03 
  4.824587544139e-03 
  1.969572395168e-01 
  9.786641693854e-02 
 -1.224405639712e-03 
  1.001376041373e-01 
  1.046781559004e-03 
  3.317968757721e-03 
  1.819139790433e-01 
  9.352588324929e-02 
  5.137787455282e-03 
  1.696286403503e-01 
  8.124054455633e-02 
  1.573433016574e-01 
  1.346126963716e-01 
  6.736202801937e-02 
  1.113596671214e-04 
  1.639995574868e-01 
  9.674888913456e-02 
  1.933864186020e-01 
  1.785109940986e-01 
  1.840831692544e-01 
  1.896553444101e-01 
  1.854225605548e-01 
  1.909947357106e-01 
  1.923341270110e-01 
  2.307298469036e-01 
  1.164835328434e-01 
  2.237218783154e-03 
  1.166653536543e-01 
  2.419039594051e-03 
  2.600860404949e-03 
  2.017337282611e-01 
  1.982903343789e-01 
  1.948469404967e-01 
  2.215408889830e-01 
  2.180974951008e-01 
  2.413480497050e-01 
  1.928271236653e-01 
  1.980905108727e-01 
  2.033538980800e-01 
  1.646964522557e-01 
  1.699598394631e-01 
  1.365657808461e-01 
  2.216233193790e-01 
  2.093703905785e-01 
  1.971174617779e-01 
  2.183097150462e-01 
  2.060567862457e-01 
  2.149961107134e-01 
  1.993257318519e-01 
  1.915810672423e-01 
  1.838364026328e-01 
  2.072163493314e-01 
  1.994716847218e-01 
  2.151069668109e-01 
  2.179368692634e-01 
  2.076439705260e-01 
  1.973510717885e-01 
  2.292721268322e-01 
  2.189792280947e-01 
  2.406073844009e-01 
  2.413500460020e-01 
  2.588533108138e-01 
  2.763565756256e-01 
  2.290925903713e-01 
  2.465958551831e-01 
  2.168351347406e-01 
  2.413659842171e-01 
  2.189795579350e-01 
  1.965931316529e-01 
  2.343312034336e-01 
  2.119447771515e-01 
  2.272964226501e-01 
  2.017456556959e-01 
  2.207569136576e-01 
  2.397681716193e-01 
  1.997555506946e-01 
  2.187668086563e-01 
  1.977654456934e-01 
  2.268714722142e-01 
  2.282002692111e-01 
  2.295290662080e-01 
  2.533350773865e-01 
  2.546638743834e-01 
  2.797986825588e-01 
  2.275635623390e-01 
  2.138340705120e-01 
  2.001045786850e-01 
  1.174726733888e-01 
  1.037431815618e-01 
  7.381784438577e-03 
  2.270844153166e-01 
  2.525036675830e-01 
  2.779229198495e-01 
  2.565972231885e-01 
  2.820164754549e-01 
  2.861100310604e-01 
  2.773335442702e-01 
  2.514056112115e-01 
  2.254776781529e-01 
  2.463549893645e-01 
  2.204270563058e-01 
  2.153764344587e-01 
  2.213727334056e-01 
  2.230490022426e-01 
  2.247252710796e-01 
  2.323393260587e-01 
  2.340155948957e-01 
  2.433059187118e-01 
  2.232152003277e-01 
  2.220875066340e-01 
  2.209598129402e-01 
  2.093821876136e-01 
  2.082544939198e-01 
  1.955491748994e-01 
  2.840416634587e-01 
  2.817891095978e-01 
  2.795365557369e-01 
  2.568910946767e-01 
  2.546385408158e-01 
  2.297405258947e-01 
  2.275353995076e-01 
  2.524484455782e-01 
  2.773614916487e-01 
  2.341302079264e-01 
  2.590432539970e-01 
  2.407250163453e-01 
  5.909764143863e-03 
  1.172474030133e-01 
  2.285850418827e-01 
  1.172416210147e-01 
  2.285792598841e-01 
  2.285734778854e-01 