# vtk DataFile Version 2
NuDG++ 2D simulation
ASCII
DATASET UNSTRUCTURED_GRID

POINTS 2244 double
 -1.656250060000e-01  -2.000000030000e-01  0.0
 -1.828125045000e-01  -1.772221997500e-01  0.0
 -2.000000030000e-01  -1.544443965000e-01  0.0
 -1.828125045000e-01  -2.000000030000e-01  0.0
 -2.000000030000e-01  -1.772221997500e-01  0.0
 -2.000000030000e-01  -2.000000030000e-01  0.0
 -6.428571790000e-02  -1.700000018000e-01  0.0
 -8.058035746000e-02  -1.850000024000e-01  0.0
 -9.687499702000e-02  -2.000000030000e-01  0.0
 -6.339285895000e-02  -1.850000024000e-01  0.0
 -7.968749851000e-02  -2.000000030000e-01  0.0
 -6.250000000000e-02  -2.000000030000e-01  0.0
 -2.000000030000e-01  -1.544443965000e-01  0.0
 -1.750000045000e-01  -1.379364989500e-01  0.0
 -1.500000060000e-01  -1.214286014000e-01  0.0
 -2.000000030000e-01  -1.316666491500e-01  0.0
 -1.750000045000e-01  -1.151587516000e-01  0.0
 -2.000000030000e-01  -1.088889018000e-01  0.0
 -1.500000060000e-01  -1.214286014000e-01  0.0
 -1.750000045000e-01  -1.379364989500e-01  0.0
 -2.000000030000e-01  -1.544443965000e-01  0.0
 -1.500000060000e-01  -1.457143016000e-01  0.0
 -1.750000045000e-01  -1.622221991500e-01  0.0
 -1.500000060000e-01  -1.700000018000e-01  0.0
 -1.500000060000e-01  -7.285714149000e-02  0.0
 -1.750000045000e-01  -9.087302164500e-02  0.0
 -2.000000030000e-01  -1.088889018000e-01  0.0
 -1.500000060000e-01  -9.714287144500e-02  0.0
 -1.750000045000e-01  -1.151587516000e-01  0.0
 -1.500000060000e-01  -1.214286014000e-01  0.0
  1.832975030000e+00  -4.625000060000e-02  0.0
  1.853987515000e+00  -1.231250018000e-01  0.0
  1.875000000000e+00  -2.000000030000e-01  0.0
  1.916487515000e+00  -7.187499851000e-02  0.0
  1.937500000000e+00  -1.487499997100e-01  0.0
  2.000000000000e+00  -9.749999642000e-02  0.0
 -1.500000060000e-01  -1.700000018000e-01  0.0
 -1.360000037000e-01  -1.525000036000e-01  0.0
 -1.220000014000e-01  -1.350000054000e-01  0.0
 -1.500000060000e-01  -1.457143016000e-01  0.0
 -1.360000037000e-01  -1.282143034000e-01  0.0
 -1.500000060000e-01  -1.214286014000e-01  0.0
  2.849999964000e-01  -2.333333530000e-02  0.0
  2.837499976000e-01  -8.166666795000e-02  0.0
  2.824999988000e-01  -1.400000006000e-01  0.0
  3.174999952000e-01  -4.666666780000e-02  0.0
  3.162499964000e-01  -1.050000004500e-01  0.0
  3.499999940000e-01  -7.000000030000e-02  0.0
 -1.071429029000e-01  -1.700000018000e-01  0.0
 -8.571431040000e-02  -1.700000018000e-01  0.0
 -6.428571790000e-02  -1.700000018000e-01  0.0
 -9.857145324000e-02  -1.525000036000e-01  0.0
 -7.714286074000e-02  -1.525000036000e-01  0.0
 -9.000000358000e-02  -1.350000054000e-01  0.0
 -1.312499940000e-01  -2.000000030000e-01  0.0
 -1.191964484500e-01  -1.850000024000e-01  0.0
 -1.071429029000e-01  -1.700000018000e-01  0.0
 -1.406250000000e-01  -1.850000024000e-01  0.0
 -1.285714544500e-01  -1.700000018000e-01  0.0
 -1.500000060000e-01  -1.700000018000e-01  0.0
 -1.220000014000e-01  -1.350000054000e-01  0.0
 -1.060000024900e-01  -1.350000054000e-01  0.0
 -9.000000358000e-02  -1.350000054000e-01  0.0
 -1.185000017500e-01  -1.175000034500e-01  0.0
 -1.025000028400e-01  -1.175000034500e-01  0.0
 -1.150000021000e-01  -1.000000015000e-01  0.0
 -9.000000358000e-02  -1.350000054000e-01  0.0
 -1.060000024900e-01  -1.350000054000e-01  0.0
 -1.220000014000e-01  -1.350000054000e-01  0.0
 -9.857145324000e-02  -1.525000036000e-01  0.0
 -1.145714521500e-01  -1.525000036000e-01  0.0
 -1.071429029000e-01  -1.700000018000e-01  0.0
 -7.778175920000e-02  -9.192386270000e-02  0.0
 -9.639088065000e-02  -9.596193210000e-02  0.0
 -1.150000021000e-01  -1.000000015000e-01  0.0
 -8.389088139000e-02  -1.134619340500e-01  0.0
 -1.025000028400e-01  -1.175000034500e-01  0.0
 -9.000000358000e-02  -1.350000054000e-01  0.0
 -1.220000014000e-01  -1.350000054000e-01  0.0
 -1.185000017500e-01  -1.175000034500e-01  0.0
 -1.150000021000e-01  -1.000000015000e-01  0.0
 -1.360000037000e-01  -1.282143034000e-01  0.0
 -1.325000040500e-01  -1.107143014500e-01  0.0
 -1.500000060000e-01  -1.214286014000e-01  0.0
 -7.778175920000e-02  -9.192386270000e-02  0.0
 -8.389088139000e-02  -1.134619340500e-01  0.0
 -9.000000358000e-02  -1.350000054000e-01  0.0
 -6.639088876500e-02  -1.022535823500e-01  0.0
 -7.250001095500e-02  -1.237916537000e-01  0.0
 -5.500001833000e-02  -1.125833020000e-01  0.0
 -1.071429029000e-01  -1.700000018000e-01  0.0
 -1.145714521500e-01  -1.525000036000e-01  0.0
 -1.220000014000e-01  -1.350000054000e-01  0.0
 -1.285714544500e-01  -1.700000018000e-01  0.0
 -1.360000037000e-01  -1.525000036000e-01  0.0
 -1.500000060000e-01  -1.700000018000e-01  0.0
  6.250000093000e-03  -2.000000030000e-01  0.0
  4.062500153650e-02  -2.000000030000e-01  0.0
  7.500000298000e-02  -2.000000030000e-01  0.0
  1.383928512150e-02  -1.850000024000e-01  0.0
  4.821428656500e-02  -1.850000024000e-01  0.0
  2.142857015000e-02  -1.700000018000e-01  0.0
 -1.500000060000e-01  -7.285714149000e-02  0.0
 -1.500000060000e-01  -9.714287144500e-02  0.0
 -1.500000060000e-01  -1.214286014000e-01  0.0
 -1.325000040500e-01  -8.642857149500e-02  0.0
 -1.325000040500e-01  -1.107143014500e-01  0.0
 -1.150000021000e-01  -1.000000015000e-01  0.0
 -2.000000030000e-01  -6.333333254000e-02  0.0
 -1.750000045000e-01  -6.809523701500e-02  0.0
 -1.500000060000e-01  -7.285714149000e-02  0.0
 -1.750000045000e-01  -4.380952660000e-02  0.0
 -1.500000060000e-01  -4.857143107500e-02  0.0
 -1.500000060000e-01  -2.428572066000e-02  0.0
 -2.000000030000e-01  -6.333333254000e-02  0.0
 -2.000000030000e-01  -8.611111717000e-02  0.0
 -2.000000030000e-01  -1.088889018000e-01  0.0
 -1.750000045000e-01  -6.809523701500e-02  0.0
 -1.750000045000e-01  -9.087302164500e-02  0.0
 -1.500000060000e-01  -7.285714149000e-02  0.0
 -2.000000030000e-01  -6.333333254000e-02  0.0
 -1.750000045000e-01  -4.380952660000e-02  0.0
 -1.500000060000e-01  -2.428572066000e-02  0.0
 -2.000000030000e-01  -4.055555630500e-02  0.0
 -1.750000045000e-01  -2.103175036500e-02  0.0
 -2.000000030000e-01  -1.777778007000e-02  0.0
 -1.500000060000e-01  -2.428572066000e-02  0.0
 -1.500000060000e-01  -4.857143107500e-02  0.0
 -1.500000060000e-01  -7.285714149000e-02  0.0
 -1.281259023000e-01  -2.896608505500e-02  0.0
 -1.281259023000e-01  -5.325179547000e-02  0.0
 -1.062517986000e-01  -3.364644945000e-02  0.0
 -1.099999994000e-01   1.996667010000e-08  0.0
 -1.300000027000e-01  -1.214285034666e-02  0.0
 -1.500000060000e-01  -2.428572066000e-02  0.0
 -1.081258990000e-01  -1.682321474166e-02  0.0
 -1.281259023000e-01  -2.896608505500e-02  0.0
 -1.062517986000e-01  -3.364644945000e-02  0.0
 -1.500000060000e-01  -2.428572066000e-02  0.0
 -1.500000060000e-01   0.000000000000e+00  0.0
 -1.500000060000e-01   2.428572066000e-02  0.0
 -1.750000045000e-01  -2.103175036500e-02  0.0
 -1.750000045000e-01   3.253970295000e-03  0.0
 -2.000000030000e-01  -1.777778007000e-02  0.0
 -1.500000060000e-01  -7.285714149000e-02  0.0
 -1.226314045700e-01  -6.892856210000e-02  0.0
 -9.526280314000e-02  -6.499998271000e-02  0.0
 -1.281259023000e-01  -5.325179547000e-02  0.0
 -1.007573008700e-01  -4.932321608000e-02  0.0
 -1.062517986000e-01  -3.364644945000e-02  0.0
  3.499999940000e-01   1.400000006000e-01  0.0
  4.021931737500e-01   1.224999986500e-01  0.0
  4.543863535000e-01   1.049999967000e-01  0.0
  4.187500029500e-01   1.749999970000e-01  0.0
  4.709431827000e-01   1.574999950500e-01  0.0
  4.875000119000e-01   2.099999934000e-01  0.0
 -7.101409137000e-02  -4.349999130000e-02  0.0
 -8.313844725500e-02  -5.424998700500e-02  0.0
 -9.526280314000e-02  -6.499998271000e-02  0.0
 -6.449843011500e-02  -5.250913650000e-02  0.0
 -7.662278600000e-02  -6.325913220500e-02  0.0
 -5.798276886000e-02  -6.151828170000e-02  0.0
 -9.526280314000e-02  -6.499998271000e-02  0.0
 -1.226314045700e-01  -6.892856210000e-02  0.0
 -1.500000060000e-01  -7.285714149000e-02  0.0
 -1.051314026200e-01  -8.249999210500e-02  0.0
 -1.325000040500e-01  -8.642857149500e-02  0.0
 -1.150000021000e-01  -1.000000015000e-01  0.0
 -6.181925908000e-02  -1.656441018000e-02  0.0
 -7.051259093000e-02  -1.954082492500e-02  0.0
 -7.920592278000e-02  -2.251723967000e-02  0.0
 -5.862244405000e-02  -2.428220026000e-02  0.0
 -6.731577590000e-02  -2.725861500500e-02  0.0
 -5.542562902000e-02  -3.199999034000e-02  0.0
 -7.920592278000e-02  -2.251723967000e-02  0.0
 -9.272886069000e-02  -2.808184456000e-02  0.0
 -1.062517986000e-01  -3.364644945000e-02  0.0
 -7.511000707500e-02  -3.300861548500e-02  0.0
 -8.863294498500e-02  -3.857322037500e-02  0.0
 -7.101409137000e-02  -4.349999130000e-02  0.0
 -7.101409137000e-02  -4.349999130000e-02  0.0
 -6.321986019500e-02  -3.774999082000e-02  0.0
 -5.542562902000e-02  -3.199999034000e-02  0.0
 -7.511000707500e-02  -3.300861548500e-02  0.0
 -6.731577590000e-02  -2.725861500500e-02  0.0
 -7.920592278000e-02  -2.251723967000e-02  0.0
 -7.920592278000e-02  -2.251723967000e-02  0.0
 -9.460296109000e-02  -1.125860985166e-02  0.0
 -1.099999994000e-01   1.996667010000e-08  0.0
 -9.272886069000e-02  -2.808184456000e-02  0.0
 -1.081258990000e-01  -1.682321474166e-02  0.0
 -1.062517986000e-01  -3.364644945000e-02  0.0
 -7.778175920000e-02  -9.192386270000e-02  0.0
 -6.788226403000e-02  -7.672107220000e-02  0.0
 -5.798276886000e-02  -6.151828170000e-02  0.0
 -8.652228117000e-02  -7.846192270500e-02  0.0
 -7.662278600000e-02  -6.325913220500e-02  0.0
 -9.526280314000e-02  -6.499998271000e-02  0.0
 -7.101409137000e-02  -4.349999130000e-02  0.0
 -8.863294498500e-02  -3.857322037500e-02  0.0
 -1.062517986000e-01  -3.364644945000e-02  0.0
 -8.313844725500e-02  -5.424998700500e-02  0.0
 -1.007573008700e-01  -4.932321608000e-02  0.0
 -9.526280314000e-02  -6.499998271000e-02  0.0
 -7.778175920000e-02  -9.192386270000e-02  0.0
 -8.652228117000e-02  -7.846192270500e-02  0.0
 -9.526280314000e-02  -6.499998271000e-02  0.0
 -9.639088065000e-02  -9.596193210000e-02  0.0
 -1.051314026200e-01  -8.249999210500e-02  0.0
 -1.150000021000e-01  -1.000000015000e-01  0.0
[...]
POINT_DATA 2244
SCALARS field1 double 1
LOOKUP_TABLE default
  2.914307275540e-03 
  1.167540408454e-01 
  2.305937744152e-01 
  1.318603622629e-03 
  1.151583371925e-01 
 -2.771000302811e-04 
  3.349325675490e-01 
  1.663789799654e-01 
 -2.174607618274e-03 
  1.684535861938e-01 
 -1.000013898666e-04 
  1.974604838541e-03 
  2.281010512252e-01 
  2.949246983514e-01 
  3.617483454777e-01 
  3.144446224280e-01 
  3.812682695543e-01 
  4.007881936308e-01 
  3.627259427446e-01 
  2.953207777201e-01 
  2.279156126957e-01 
  2.726641201375e-01 
  2.052589551131e-01 
  1.826022975305e-01 
  4.986353621784e-01 
  4.499416863412e-01 
  4.012480105040e-01 
  4.325353581316e-01 
  3.838416822944e-01 
  3.664353540849e-01 
  2.385863229095e-01 
  8.382171116359e-02 
 -7.094290058229e-02 
  2.854265121923e-01 
  1.306619004465e-01 
  3.322667014752e-01 
  1.832890910724e-01 
  2.626097155975e-01 
  3.419303401226e-01 
  2.734913506191e-01 
  3.528119751442e-01 
  3.636936101658e-01 
  4.875304179363e-01 
  4.607122578914e-01 
  4.338940978466e-01 
  4.891904851324e-01 
  4.623723250876e-01 
  4.908505523286e-01 
  2.471236661892e-01 
  2.913456398078e-01 
  3.355676134265e-01 
  3.168266708172e-01 
  3.610486444359e-01 
  3.865296754452e-01 
  8.754451089691e-05 
  1.240051970286e-01 
  2.479228495464e-01 
  8.879639856696e-02 
  2.127140510847e-01 
  1.775052526230e-01 
  3.380601912350e-01 
  3.613795381868e-01 
  3.846988851386e-01 
  4.006075221316e-01 
  4.239268690834e-01 
  4.631548530283e-01 
  3.833376499944e-01 
  3.609290994728e-01 
  3.385205489512e-01 
  3.151481813425e-01 
  2.927396308209e-01 
  2.469587126906e-01 
  5.118762154067e-01 
  4.875014089976e-01 
  4.631266025885e-01 
  4.500579063930e-01 
  4.256830999839e-01 
  3.882395973793e-01 
  3.402326086366e-01 
  4.012449894574e-01 
  4.622573702783e-01 
  3.523699053682e-01 
  4.133822861891e-01 
  3.645072020999e-01 
  5.122225635057e-01 
  4.495814562147e-01 
  3.869403489237e-01 
  5.164138844383e-01 
  4.537727771473e-01 
  5.206052053710e-01 
  2.460557112006e-01 
  2.939398202016e-01 
  3.418239292026e-01 
  2.138049864090e-01 
  2.616890954100e-01 
  1.815542616175e-01 
  1.461599615884e-03 
  3.824813449862e-03 
  6.188027283840e-03 
  2.410746658083e-01 
  2.434378796423e-01 
  4.806877320007e-01 
  4.982557722171e-01 
  4.316665631242e-01 
  3.650773540314e-01 
  4.798867309056e-01 
  4.132975218127e-01 
  4.615176895941e-01 
  5.170228819076e-01 
  5.058876753484e-01 
  4.947524687892e-01 
  5.308650379097e-01 
  5.197298313505e-01 
  5.447071939118e-01 
  5.156236392784e-01 
  4.585671579165e-01 
  4.015106765546e-01 
  5.057018871661e-01 
  4.486454058042e-01 
  4.957801350539e-01 
  5.186294586261e-01 
  5.318677129875e-01 
  5.451059673490e-01 
  5.469758884722e-01 
  5.602141428336e-01 
  5.753223183183e-01 
  5.450692976223e-01 
  5.221353386905e-01 
  4.992013797587e-01 
  5.105482824477e-01 
  4.876143235159e-01 
  4.760272672732e-01 
  4.499053934824e-01 
  4.977540746100e-01 
  5.456027557375e-01 
  4.597983334201e-01 
  5.076470145477e-01 
  4.696912733579e-01 
  5.398463685507e-01 
  5.470432264244e-01 
  5.542400842982e-01 
  5.579371927902e-01 
  5.651340506639e-01 
  5.760280170297e-01 
  4.982058085258e-01 
  4.858272438140e-01 
  4.734486791023e-01 
  4.862315556366e-01 
  4.738529909248e-01 
  4.742573027474e-01 
  4.258693716172e-01 
  4.766471433081e-01 
  5.274249149991e-01 
  2.457273803057e-01 
  2.965051519966e-01 
  6.558538899414e-02 
  4.411790911545e-01 
  4.608124112887e-01 
  4.804457314229e-01 
  4.922340518931e-01 
  5.118673720273e-01 
  5.432890126317e-01 
  4.756845961635e-01 
  4.870610085396e-01 
  4.984374209157e-01 
  4.704341006359e-01 
  4.818105130120e-01 
  4.651836051084e-01 
  1.727507980709e-01 
  2.592045966483e-01 
  3.456583952256e-01 
  2.283604200174e-01 
  3.148142185947e-01 
  2.839700419638e-01 
  3.316375610263e-01 
  3.994025293576e-01 
  4.671674976889e-01 
  3.864847586718e-01 
  4.542497270031e-01 
  4.413319563173e-01 
  4.434070819620e-01 
  3.674237409830e-01 
  2.914404000040e-01 
  3.918775451099e-01 
  3.158942041310e-01 
  3.403480082579e-01 
  3.306904205811e-01 
  3.876732224655e-01 
  4.446560243500e-01 
  4.000087517208e-01 
  4.569915536052e-01 
  4.693270828604e-01 
  5.122486783990e-01 
  5.300823687432e-01 
  5.479160590873e-01 
  4.954121089121e-01 
  5.132457992563e-01 
  4.785755394252e-01 
  4.441992611656e-01 
  4.574038103042e-01 
  4.706083594428e-01 
  4.635360400035e-01 
  4.767405891421e-01 
  4.828728188415e-01 
  5.071291059304e-01 
  4.910529989288e-01 
  4.749768919271e-01 
  4.850974409413e-01 
  4.690213339396e-01 
  4.630657759521e-01 
  3.409731129631e-01 
  2.601687474829e-01 
  1.793643820026e-01 
  3.265144119952e-01 
  2.457100465150e-01 
  3.120557110274e-01 
  5.198714235732e-01 
  4.533851964791e-01 
  3.868989693849e-01 
  4.282711364320e-01 
  3.617849093379e-01 
  3.366708492909e-01 
  2.794353993301e-01 
  3.015871106836e-01 
  3.237388220371e-01 
  3.990543111530e-01 
  4.212060225065e-01 
  5.186732229759e-01 
  5.378155729371e-01 
  4.809382554259e-01 
  4.240609379148e-01 
  5.619150749175e-01 
  5.050377574063e-01 
  5.860145768979e-01 
  5.342289789155e-01 
  5.260116865252e-01 
  5.177943941350e-01 
  4.357269952061e-01 
  4.275097028158e-01 
  3.372250114967e-01 
  5.096215009479e-01 
  5.764236560995e-01 
  6.432258112512e-01 
  5.279730523444e-01 
  5.947752074960e-01 
  5.463246037409e-01 
  6.466254598256e-01 
  5.786640065415e-01 
  5.107025532574e-01 
  5.874094604304e-01 
  5.194480071463e-01 
  5.281934610352e-01 
  7.353859601676e-01 
  6.920383206713e-01 
  6.486906811751e-01 
  6.293177675954e-01 
  5.859701280992e-01 
  5.232495750232e-01 
  6.316553571375e-01 
  5.886645404517e-01 
  5.456737237660e-01 
  6.425240559963e-01 
  5.995332393106e-01 
  6.533927548551e-01 
  5.196533930623e-01 
  5.309015572792e-01 
  5.421497214961e-01 
  6.294532316655e-01 
  6.407013958824e-01 
  7.392530702687e-01 
  5.369108130150e-01 
  4.379652082330e-01 
  3.390196034509e-01 
  4.804924297600e-01 
  3.815468249779e-01 
  4.240740465050e-01 
  7.906744453417e-01 
  7.663547111617e-01 
  7.420349769817e-01 
  6.679650266708e-01 
  6.436452924908e-01 
  5.452556079999e-01 
 -2.578592990120e-04 
  3.078091835639e-01 
  6.158762264269e-01 
 -5.367461276059e-03 
  3.026995815869e-01 
 -1.047706325311e-02 
  7.565175561624e-01 
  7.024905807914e-01 
  6.484636054204e-01 
  7.223123486462e-01 
  6.682853732752e-01 
  6.881071411300e-01 
  6.433276193413e-01 
  6.999071517382e-01 
  7.564866841352e-01 
  7.085277901431e-01 
  7.651073225400e-01 
  7.737279609449e-01 
  6.855682838761e-01 
  6.632128529863e-01 
  6.408574220965e-01 
  3.493743308018e-01 
  3.270188999120e-01 
  1.318037772744e-02 
  7.410042831414e-01 
  7.160133421823e-01 
  6.910224012231e-01 
  6.976489823019e-01 
  6.726580413427e-01 
  6.542936814623e-01 
  7.344391915936e-01 
  6.780757667516e-01 
  6.217123419095e-01 
  7.577673974037e-01 
  7.014039725616e-01 
  7.810956032137e-01 
  7.922574153614e-01 
  6.688768635466e-01 
  5.454963117318e-01 
  6.894705996991e-01 
  5.660900478842e-01 
  5.866837840367e-01 
  4.250341725862e-01 
  4.466121990235e-01 
  4.681902254608e-01 
  5.060246534656e-01 
  5.276026799029e-01 
  5.870151343451e-01 
  6.287816589069e-01 
  6.447847033748e-01 
  6.607877478427e-01 
  6.579400577123e-01 
  6.739431021802e-01 
  6.870984565177e-01 
 -1.490526636376e-03 
  1.474984079857e-01 
  2.964873426078e-01 
  7.022716916716e-03 
  1.560116515388e-01 
  1.553596046981e-02 
  2.914468670476e-01 
  3.644445453152e-01 
  4.374422235829e-01 
  3.807611907257e-01 
  4.537588689934e-01 
  4.700755144039e-01 
  4.236061934482e-01 
  2.142137391640e-01 
  4.821284879766e-03 
  2.127187986048e-01 
  3.326344320609e-03 
  1.831403761452e-03 
 -1.280701943134e-02 
  2.577573797586e-02 
  6.435849538307e-02 
  7.858276818224e-02 
  1.171655255895e-01 
  1.699725557958e-01 
  6.159551701771e-03 
 -3.353234534618e-03 
 -1.286602077101e-02 
  1.424997962072e-01 
  1.329870099708e-01 
  2.788400407126e-01 
  2.866495214030e-01 
  1.441821002497e-01 
  1.714679096399e-03 
  2.563832569620e-01 
  1.139158358087e-01 
  2.261169925210e-01 
  2.934196924518e-01 
  3.880838994304e-01 
  4.827481064091e-01 
  1.573573816714e-01 
  2.520215886500e-01 
  2.129507089094e-02 
 -1.803081750283e-02 
  7.388651155808e-02 
  1.658038406190e-01 
  1.294949751734e-01 
  2.214123042343e-01 
  2.770207678495e-01 
  6.010810158728e-03 
  6.878331477557e-03 
  7.745852796387e-03 
  3.470741476358e-01 
  3.479416689546e-01 
  6.881374851128e-01 
  1.231995120800e-02 
  3.266365497365e-01 
  6.409531482650e-01 
  6.502626233620e-03 
  3.208192247621e-01 
  6.853012592388e-04 
  4.547056370468e-01 
  2.281560081696e-01 
  1.606379292338e-03 
  4.138119526466e-01 
  1.872623237694e-01 
  3.729182682465e-01 
  5.255168366926e-03 
  2.564465819664e-01 
  5.076379955658e-01 
  1.416702304010e-02 
  2.653584366396e-01 
  2.307887771328e-02 
  1.822722899395e-02 
  3.232471094303e-01 
  6.282669898667e-01 
  3.491032619994e-01 
  6.541231424357e-01 
  6.799792950048e-01 
  4.260053070415e-01 
  2.174445177130e-01 
  8.883728384539e-03 
  4.464854576722e-01 
  2.379246683437e-01 
  4.669656083029e-01 
  2.526978936088e-01 
  1.269698553129e-01 
  1.241817017011e-03 
  1.283472830917e-01 
  2.619244795847e-03 
  3.996672574683e-03 
  3.397114516996e-02 
  2.668677413789e-01 
  4.997643375879e-01 
  3.301386267433e-01 
  5.630352229523e-01 
  6.263061083167e-01 
  4.809225089207e-01 
  5.137597166570e-01 
  5.465969243932e-01 
  5.547877620213e-01 
  5.876249697575e-01 
  6.286530151218e-01 
  3.440028368154e-01 
  1.764188097265e-01 
  8.834782637524e-03 
  3.808973858729e-01 
  2.133133587839e-01 
  4.177919349304e-01 
  7.905675302070e-01 
  6.868539165559e-01 
  5.831403029049e-01 
  7.131615071433e-01 
  6.094478934922e-01 
  6.357554840795e-01 
  4.733703601765e-01 
  4.547854734267e-01 
  4.362005866769e-01 
  5.111136654528e-01 
  4.925287787030e-01 
  5.488569707291e-01 
  1.762115098227e-03 
  4.976639839193e-03 
  8.191164580159e-03 
  1.747393932500e-01 
  1.779539179910e-01 
  3.477166714018e-01 
  5.637285399262e-02 
  2.527080886739e-02 
 -5.831236257851e-03 
  2.582140337536e-02 
 -5.280641749879e-03 
 -4.730047241906e-03 
  5.236379333452e-01 
  5.382909750724e-01 
  5.529440167997e-01 
  5.061993099591e-01 
  5.208523516864e-01 
  4.887606865730e-01 
  5.550788597053e-01 
  5.643170326706e-01 
  5.735552056358e-01 
  5.659949103888e-01 
  5.752330833540e-01 
  5.769109610722e-01 
  5.724093382216e-01 
  5.451899660669e-01 
  5.179705939123e-01 
  5.441807850500e-01 
  5.169614128954e-01 
  5.159522318785e-01 
  5.186819176124e-01 
  5.450111813668e-01 
  5.713404451212e-01 
  5.351344121611e-01 
  5.614636759155e-01 
  5.515869067098e-01 
  5.150021155929e-01 
  5.173283313819e-01 
  5.196545471710e-01 
  4.587300737481e-01 
  4.610562895372e-01 
  4.024580319034e-01 
 -3.861167240047e-02 
 -7.306093878260e-02 
 -1.075102051647e-01 
  1.010655304980e-01 
  6.661626411586e-02 
  2.407427333965e-01 
  5.556532223481e-01 
  5.037259436650e-01 
  4.517986649819e-01 
  5.188928753675e-01 
  4.669655966844e-01 
  4.821325283868e-01 
  5.555159443643e-01 
  5.492983037658e-01 
  5.430806631672e-01 
  5.056034763660e-01 
  4.993858357675e-01 
  4.556910083677e-01 
  3.381164078974e-01 
  4.102881532160e-01 
  4.824598985347e-01 
  3.929163027609e-01 
  4.650880480795e-01 
  4.477161976244e-01 
  4.588926765714e-01 
  4.010399160686e-01 
  3.431871555658e-01 
  3.809357635009e-01 
  3.230830029981e-01 
  3.029788504304e-01 
  4.811418065811e-01 
  4.648403221329e-01 
  4.485388376848e-01 
  4.860277736171e-01 
  4.697262891689e-01 
  4.909137406530e-01 
  4.483505021137e-01 
  4.630419434291e-01 
  4.777333847445e-01 
  3.937917698888e-01 
  4.084832112042e-01 
  3.392330376639e-01 
  5.174895846128e-01 
  5.027588873165e-01 
  4.880281900201e-01 
  5.406411758822e-01 
  5.259104785858e-01 
  5.637927671515e-01 
  4.858621376261e-01 
  4.869723671181e-01 
  4.880825966101e-01 
  5.051208470533e-01 
  5.062310765453e-01 
  5.243795564805e-01 
  3.442354091645e-01 
  3.266087958680e-01 
  3.089821825716e-01 
  2.640539510887e-01 
  2.464273377923e-01 
  1.838724930129e-01 
  3.387211200558e-01 
  3.916686548411e-01 
  4.446161896263e-01 
  3.225370946690e-01 
  3.754846294542e-01 
  3.063530692822e-01 
  4.423086545513e-01 
  3.875184538561e-01 
  3.327282531609e-01 
  3.755822964666e-01 
  3.207920957714e-01 
  3.088559383820e-01 
  5.230085465822e-01 
  5.079122190580e-01 
  4.928158915337e-01 
  5.020745441891e-01 
  4.869782166648e-01 
  4.811405417960e-01 
  4.016897077926e-01 
  3.962663053569e-01 
  3.908429029213e-01 
  3.150745864815e-01 
  3.096511840458e-01 
  2.284594651704e-01 
  4.027029843539e-01 
  4.621585692843e-01 
  5.216141542147e-01 
  3.983866048766e-01 
  4.578421898070e-01 
  3.940702253993e-01 
  2.266535150698e-01 
  2.264599295057e-01 
  2.262663439417e-01 
  1.132003387840e-01 
  1.130067532199e-01 
 -2.528375018552e-04 
  2.283561607662e-01 
  2.278383739333e-01 
  2.273205871004e-01 
  3.099526374099e-01 
  3.094348505770e-01 
  3.915491140536e-01 
  2.961094471280e-01 
  1.505367872110e-01 
  4.964127294054e-03 
  1.479527024206e-01 
  2.380042503615e-03 
 -2.040422868239e-04 
  3.051603224644e-02 
  1.582253519837e-02 
  1.129038150305e-03 
  2.414828645890e-01 
  2.267893675409e-01 
  4.524496969316e-01 
  3.918822543613e-01 
  3.805204675707e-01 
  3.691586807800e-01 
  3.105002814223e-01 
  2.991384946316e-01 
  2.291183084832e-01 
  4.187374456332e-01 
  2.092557472265e-01 
 -2.259511802112e-04 
  2.262750968065e-01 
  1.679339839978e-02 
  3.381274797978e-02 
  4.784992541381e-01 
  4.956939841441e-01 
  5.128887141501e-01 
  4.510759118089e-01 
  4.682706418149e-01 
  4.236525694797e-01 
  5.114894077412e-01 
  4.958891929851e-01 
  4.802889782291e-01 
  5.018847027264e-01 
  4.862844879704e-01 
  4.922799977116e-01 
  3.650981273994e-01 
  3.954650098753e-01 
  4.258318923511e-01 
  3.273579880256e-01 
  3.577248705014e-01 
  2.896178486518e-01 
  4.228502121767e-01 
  3.948474243985e-01 
  3.668446366203e-01 
  4.500513929049e-01 
  4.220486051267e-01 
  4.772525736331e-01 
  2.918848118813e-01 
  3.605212062636e-01 
  4.291576006459e-01 
  3.406979336130e-01 
  4.093343279953e-01 
  3.895110553447e-01 
  3.685191927212e-01 
  3.273253614705e-01 
  2.861315302198e-01 
  2.982263775352e-01 
  2.570325462845e-01 
  2.279335623492e-01 
  5.113744174933e-01 
  5.122088833786e-01 
  5.130433492639e-01 
  4.678055096678e-01 
  4.686399755531e-01 
  4.242366018423e-01 
  4.768201117582e-01 
  4.229249091565e-01 
  3.690297065548e-01 
  4.342204772265e-01 
  3.803252746248e-01 
  3.916208426947e-01 
  5.212664375350e-01 
  4.985348579721e-01 
  4.758032784091e-01 
  4.564636622094e-01 
  4.337320826465e-01 
  3.916608868838e-01 
  2.964692639451e-01 
  3.383245290310e-01 
  3.801797941169e-01 
  1.504903998287e-01 
  1.923456649146e-01 
  4.511535712232e-03 
  4.844577519319e-01 
  4.675615509736e-01 
  4.506653500154e-01 
  5.234101880677e-01 
  5.065139871095e-01 
  5.623626242035e-01 
  3.896252763102e-02 
  1.099722751221e-01 
  1.809820226132e-01 
  4.930099533925e-02 
  1.203107428303e-01 
  5.963946304749e-02 
  6.014397094009e-02 
  2.678134020158e-02 
 -6.581290536924e-03 
  1.197708994402e-01 
  8.640826870172e-02 
  1.793978279404e-01 
  5.485864498509e-02 
  2.467743277845e-02 
 -5.503779428197e-03 
  2.564712744384e-02 
 -4.534084762807e-03 
 -3.564390097416e-03 
  1.834096513119e-01 
  9.190151200774e-02 
  3.933727035402e-04 
  2.364741628546e-01 
  1.449660235504e-01 
  2.895386743974e-01 
  4.459138522893e-01 
  3.663171091377e-01 
  2.867203659860e-01 
  2.202966299129e-01 
  1.406998867612e-01 
 -5.320592463629e-03 
  4.610842537355e-01 
  5.174376061823e-01 
  5.737909586292e-01 
  4.608235538026e-01 
  5.171769062495e-01 
  4.605628538698e-01 
  4.524621781072e-01 
  4.590541285796e-01 
  4.656460790520e-01 
  3.734274572855e-01 
  3.800194077579e-01 
  2.943927364637e-01 
  2.666121865127e-03 
  9.228968435295e-02 
  1.819132468408e-01 
 -4.510897482223e-04 
  8.917247273960e-02 
 -3.568301361571e-03 
  3.469956646076e-01 
  2.647913857796e-01 
  1.825871069515e-01 
  3.219592608927e-01 
  2.397549820646e-01 
  2.969228571777e-01 
 -1.644760850011e-03 
  4.891403774539e-03 
  1.142756839909e-02 
  2.241440701606e-01 
  2.306802347851e-01 
  4.499329011711e-01 
  4.764272990762e-01 
  2.437137337443e-01 
  1.100016841234e-02 
  4.754283520960e-01 
  2.427147867640e-01 
  4.744294051157e-01 
  2.756480526087e-01 
  2.005427807823e-01 
  1.254375089558e-01 
  4.101725635834e-01 
  3.350672917570e-01 
  5.446970745581e-01 
  2.305937197328e-01 
  1.169247656638e-01 
  3.255811594775e-03 
  2.054001306100e-01 
  9.173117654097e-02 
  1.802065414872e-01 
  6.473270574630e-01 
  3.262711051782e-01 
  5.215152893368e-03 
  3.322601724574e-01 
  1.120422017259e-02 
  1.719328745182e-02 
  6.270275023186e-01 
  3.132766125568e-01 
 -4.742772049185e-04 
  3.220558870621e-01 
  8.304997300386e-03 
  1.708427180569e-02 
  4.259383872063e-01 
  2.179167265047e-01 
  9.895065803041e-03 
  3.939300392647e-01 
  1.859083785630e-01 
  3.619216913231e-01 
  4.430073254794e-01 
  2.236668096942e-01 
  4.326293909097e-03 
  5.259963244707e-01 
  3.066558086856e-01 
  6.089853234621e-01 
  5.025502271828e-01 
  4.736225608757e-01 
  4.446948945686e-01 
  4.565722123102e-01 
  4.276445460032e-01 
  4.105941974377e-01 
  6.925017122426e-01 
  3.498309847022e-01 
  7.160257161761e-03 
  3.466182252263e-01 
  3.947497685848e-03 
  7.347382099361e-04 
  5.692996862603e-01 
  5.921760473313e-01 
  6.150524084024e-01 
  6.221233472526e-01 
  6.449997083237e-01 
  6.749470082449e-01 
  6.061632964656e-01 
  5.913013337859e-01 
  5.764393711061e-01 
  5.293166862263e-01 
  5.144547235465e-01 
  4.524700759869e-01 
  5.342700731959e-01 
  4.606273253158e-01 
  3.869845774358e-01 
  5.244723083338e-01 
  4.508295604537e-01 
  5.146745434717e-01 
  3.909267817012e-01 
  4.093496545964e-01 
  4.277725274915e-01 
  4.521796099436e-01 
  4.706024828388e-01 
  5.134324381860e-01 
  5.224686875653e-01 
  5.171842059667e-01 
  5.118997243682e-01 
  5.981133575556e-01 
  5.928288759570e-01 
  6.737580275458e-01 
  6.743412554883e-01 
  7.139047585101e-01 
  7.534682615319e-01 
  5.972347315476e-01 
  6.367982345695e-01 
  5.201282076070e-01 
  6.752732501493e-01 
  6.496128659931e-01 
  6.239524818368e-01 
  6.835274793454e-01 
  6.578670951891e-01 
  6.917817085414e-01 
  5.639416772946e-01 
  6.164054454777e-01 
  6.688692136608e-01 
  5.382203071209e-01 
  5.906840753040e-01 
  5.124989369472e-01 
  6.867390912226e-01 
  6.706696950088e-01 
  6.546002987950e-01 
  7.252193092677e-01 
  7.091499130540e-01 
  7.636995273129e-01 
  6.904365440965e-01 
  6.658973217395e-01 
  6.413580993825e-01 
  3.583206912888e-01 
  3.337814689318e-01 
  2.620483848106e-02 
  5.509879107838e-01 
  6.546687292870e-01 
  7.583495477902e-01 
  6.712964415963e-01 
  7.749772600995e-01 
  7.916049724088e-01 
  7.579500519858e-01 
  6.521460198363e-01 
  5.463419876868e-01 
  6.371216661320e-01 
  5.313176339825e-01 
  5.162932802783e-01 
  4.505030905419e-01 
  4.940730984426e-01 
  5.376431063433e-01 
  5.213226828554e-01 
  5.648926907561e-01 
  5.921422751689e-01 
  5.366002598490e-01 
  4.931642893424e-01 
  4.497283188359e-01 
  4.594923895587e-01 
  4.160564190522e-01 
  3.823845192685e-01 
  7.744868202214e-01 
  7.696357653957e-01 
  7.647847105700e-01 
  7.120316808994e-01 
  7.071806260737e-01 
  6.495765415775e-01 
  6.897785814694e-01 
  7.211511976393e-01 
  7.525238138092e-01 
  6.819013146671e-01 
  7.132739308370e-01 
  6.740240478648e-01 
  1.121145093872e-02 
  3.326707139801e-01 
  6.541299770214e-01 
  3.492975092228e-01 
  6.707567722642e-01 
  6.873835675069e-01 