# vtk DataFile Version 2
NuDG++ 2D simulation
ASCII
DATASET UNSTRUCTURED_GRID

POINTS 2244 double
 -1.656250060000e-01  -2.000000030000e-01  0.0
 -1.828125045000e-01  -1.772221997500e-01  0.0
 -2.000000030000e-01  -1.544443965000e-01  0.0
 -1.828125045000e-01  -2.000000030000e-01  0.0
 -2.000000030000e-01  -1.772221997500e-01  0.0
 -2.000000030000e-01  -2.000000030000e-01  0.0
 -6.428571790000e-02  -1.700000018000e-01  0.0
 -8.058035746000e-02  -1.850000024000e-01  0.0
 -9.687499702000e-02  -2.000000030000e-01  0.0
 -6.339285895000e-02  -1.850000024000e-01  0.0
 -7.968749851000e-02  -2.000000030000e-01  0.0
 -6.250000000000e-02  -2.000000030000e-01  0.0
 -2.000000030000e-01  -1.544443965000e-01  0.0
 -1.750000045000e-01  -1.379364989500e-01  0.0
 -1.500000060000e-01  -1.214286014000e-01  0.0
 -2.000000030000e-01  -1.316666491500e-01  0.0
 -1.750000045000e-01  -1.151587516000e-01  0.0
 -2.000000030000e-01  -1.088889018000e-01  0.0
 -1.500000060000e-01  -1.214286014000e-01  0.0
 -1.750000045000e-01  -1.379364989500e-01  0.0
 -2.000000030000e-01  -1.544443965000e-01  0.0
 -1.500000060000e-01  -1.457143016000e-01  0.0
 -1.750000045000e-01  -1.622221991500e-01  0.0
 -1.500000060000e-01  -1.700000018000e-01  0.0
 -1.500000060000e-01  -7.285714149000e-02  0.0
 -1.750000045000e-01  -9.087302164500e-02  0.0
 -2.000000030000e-01  -1.088889018000e-01  0.0
 -1.500000060000e-01  -9.714287144500e-02  0.0
 -1.750000045000e-01  -1.151587516000e-01  0.0
 -1.500000060000e-01  -1.214286014000e-01  0.0
  1.832975030000e+00  -4.625000060000e-02  0.0
  1.853987515000e+00  -1.231250018000e-01  0.0
  1.875000000000e+00  -2.000000030000e-01  0.0
  1.916487515000e+00  -7.187499851000e-02  0.0
  1.937500000000e+00  -1.487499997100e-01  0.0
  2.000000000000e+00  -9.749999642000e-02  0.0
 -1.500000060000e-01  -1.700000018000e-01  0.0
 -1.360000037000e-01  -1.525000036000e-01  0.0
 -1.220000014000e-01  -1.350000054000e-01  0.0
 -1.500000060000e-01  -1.457143016000e-01  0.0
 -1.360000037000e-01  -1.282143034000e-01  0.0
 -1.500000060000e-01  -1.214286014000e-01  0.0
  2.849999964000e-01  -2.333333530000e-02  0.0
  2.837499976000e-01  -8.166666795000e-02  0.0
  2.824999988000e-01  -1.400000006000e-01  0.0
  3.174999952000e-01  -4.666666780000e-02  0.0
  3.162499964000e-01  -1.050000004500e-01  0.0
  3.499999940000e-01  -7.000000030000e-02  0.0
 -1.071429029000e-01  -1.700000018000e-01  0.0
 -8.571431040000e-02  -1.700000018000e-01  0.0
 -6.428571790000e-02  -1.700000018000e-01  0.0
 -9.857145324000e-02  -1.525000036000e-01  0.0
 -7.714286074000e-02  -1.525000036000e-01  0.0
 -9.000000358000e-02  -1.350000054000e-01  0.0
 -1.312499940000e-01  -2.000000030000e-01  0.0
 -1.191964484500e-01  -1.850000024000e-01  0.0
 -1.071429029000e-01  -1.700000018000e-01  0.0
 -1.406250000000e-01  -1.850000024000e-01  0.0
 -1.285714544500e-01  -1.700000018000e-01  0.0
 -1.500000060000e-01  -1.700000018000e-01  0.0
 -1.220000014000e-01  -1.350000054000e-01  0.0
 -1.060000024900e-01  -1.350000054000e-01  0.0
 -9.000000358000e-02  -1.350000054000e-01  0.0
 -1.185000017500e-01  -1.175000034500e-01  0.0
 -1.025000028400e-01  -1.175000034500e-01  0.0
 -1.150000021000e-01  -1.000000015000e-01  0.0
 -9.000000358000e-02  -1.350000054000e-01  0.0
 -1.060000024900e-01  -1.350000054000e-01  0.0
 -1.220000014000e-01  -1.350000054000e-01  0.0
 -9.857145324000e-02  -1.525000036000e-01  0.0
 -1.145714521500e-01  -1.525000036000e-01  0.0
 -1.071429029000e-01  -1.700000018000e-01  0.0
 -7.778175920000e-02  -9.192386270000e-02  0.0
 -9.639088065000e-02  -9.596193210000e-02  0.0
 -1.150000021000e-01  -1.000000015000e-01  0.0
 -8.389088139000e-02  -1.134619340500e-01  0.0
 -1.025000028400e-01  -1.175000034500e-01  0.0
 -9.000000358000e-02  -1.350000054000e-01  0.0
 -1.220000014000e-01  -1.350000054000e-01  0.0
 -1.185000017500e-01  -1.175000034500e-01  0.0
 -1.150000021000e-01  -1.000000015000e-01  0.0
 -1.360000037000e-01  -1.282143034000e-01  0.0
 -1.325000040500e-01  -1.107143014500e-01  0.0
 -1.500000060000e-01  -1.214286014000e-01  0.0
 -7.778175920000e-02  -9.192386270000e-02  0.0
 -8.389088139000e-02  -1.134619340500e-01  0.0
 -9.000000358000e-02  -1.350000054000e-01  0.0
 -6.639088876500e-02  -1.022535823500e-01  0.0
 -7.250001095500e-02  -1.237916537000e-01  0.0
 -5.500001833000e-02  -1.125833020000e-01  0.0
 -1.071429029000e-01  -1.700000018000e-01  0.0
 -1.145714521500e-01  -1.525000036000e-01  0.0
 -1.220000014000e-01  -1.350000054000e-01  0.0
 -1.285714544500e-01  -1.700000018000e-01  0.0
 -1.360000037000e-01  -1.525000036000e-01  0.0
 -1.500000060000e-01  -1.700000018000e-01  0.0
  6.250000093000e-03  -2.000000030000e-01  0.0
  4.062500153650e-02  -2.000000030000e-01  0.0
  7.500000298000e-02  -2.000000030000e-01  0.0
  1.383928512150e-02  -1.850000024000e-01  0.0
  4.821428656500e-02  -1.850000024000e-01  0.0
  2.142857015000e-02  -1.700000018000e-01  0.0
 -1.500000060000e-01  -7.285714149000e-02  0.0
 -1.500000060000e-01  -9.714287144500e-02  0.0
 -1.500000060000e-01  -1.214286014000e-01  0.0
 -1.325000040500e-01  -8.642857149500e-02  0.0
 -1.325000040500e-01  -1.107143014500e-01  0.0
 -1.150000021000e-01  -1.000000015000e-01  0.0
 -2.000000030000e-01  -6.333333254000e-02  0.0
 -1.750000045000e-01  -6.809523701500e-02  0.0
 -1.500000060000e-01  -7.285714149000e-02  0.0
 -1.750000045000e-01  -4.380952660000e-02  0.0
 -1.500000060000e-01  -4.857143107500e-02  0.0
 -1.500000060000e-01  -2.428572066000e-02  0.0
 -2.000000030000e-01  -6.333333254000e-02  0.0
 -2.000000030000e-01  -8.611111717000e-02  0.0
 -2.000000030000e-01  -1.088889018000e-01  0.0
 -1.750000045000e-01  -6.809523701500e-02  0.0
 -1.750000045000e-01  -9.087302164500e-02  0.0
 -1.500000060000e-01  -7.285714149000e-02  0.0
 -2.000000030000e-01  -6.333333254000e-02  0.0
 -1.750000045000e-01  -4.380952660000e-02  0.0
 -1.500000060000e-01  -2.428572066000e-02  0.0
 -2.000000030000e-01  -4.055555630500e-02  0.0
 -1.750000045000e-01  -2.103175036500e-02  0.0
 -2.000000030000e-01  -1.777778007000e-02  0.0
 -1.500000060000e-01  -2.428572066000e-02  0.0
 -1.500000060000e-01  -4.857143107500e-02  0.0
 -1.500000060000e-01  -7.285714149000e-02  0.0
 -1.281259023000e-01  -2.896608505500e-02  0.0
 -1.281259023000e-01  -5.325179547000e-02  0.0
 -1.062517986000e-01  -3.364644945000e-02  0.0
 -1.099999994000e-01   1.996667010000e-08  0.0
 -1.300000027000e-01  -1.214285034666e-02  0.0
 -1.500000060000e-01  -2.428572066000e-02  0.0
 -1.081258990000e-01  -1.682321474166e-02  0.0
 -1.281259023000e-01  -2.896608505500e-02  0.0
 -1.062517986000e-01  -3.364644945000e-02  0.0
 -1.500000060000e-01  -2.428572066000e-02  0.0
 -1.500000060000e-01   0.000000000000e+00  0.0
 -1.500000060000e-01   2.428572066000e-02  0.0
 -1.750000045000e-01  -2.103175036500e-02  0.0
 -1.750000045000e-01   3.253970295000e-03  0.0
 -2.000000030000e-01  -1.777778007000e-02  0.0
 -1.500000060000e-01  -7.285714149000e-02  0.0
 -1.226314045700e-01  -6.892856210000e-02  0.0
 -9.526280314000e-02  -6.499998271000e-02  0.0
 -1.281259023000e-01  -5.325179547000e-02  0.0
 -1.007573008700e-01  -4.932321608000e-02  0.0
 -1.062517986000e-01  -3.364644945000e-02  0.0
  3.499999940000e-01   1.400000006000e-01  0.0
  4.021931737500e-01   1.224999986500e-01  0.0
  4.543863535000e-01   1.049999967000e-01  0.0
  4.187500029500e-01   1.749999970000e-01  0.0
  4.709431827000e-01   1.574999950500e-01  0.0
  4.875000119000e-01   2.099999934000e-01  0.0
 -7.101409137000e-02  -4.349999130000e-02  0.0
 -8.313844725500e-02  -5.424998700500e-02  0.0
 -9.526280314000e-02  -6.499998271000e-02  0.0
 -6.449843011500e-02  -5.250913650000e-02  0.0
 -7.662278600000e-02  -6.325913220500e-02  0.0
 -5.798276886000e-02  -6.151828170000e-02  0.0
 -9.526280314000e-02  -6.499998271000e-02  0.0
 -1.226314045700e-01  -6.892856210000e-02  0.0
 -1.500000060000e-01  -7.285714149000e-02  0.0
 -1.051314026200e-01  -8.249999210500e-02  0.0
 -1.325000040500e-01  -8.642857149500e-02  0.0
 -1.150000021000e-01  -1.000000015000e-01  0.0
 -6.181925908000e-02  -1.656441018000e-02  0.0
 -7.051259093000e-02  -1.954082492500e-02  0.0
 -7.920592278000e-02  -2.251723967000e-02  0.0
 -5.862244405000e-02  -2.428220026000e-02  0.0
 -6.731577590000e-02  -2.725861500500e-02  0.0
 -5.542562902000e-02  -3.199999034000e-02  0.0
 -7.920592278000e-02  -2.251723967000e-02  0.0
 -9.272886069000e-02  -2.808184456000e-02  0.0
 -1.062517986000e-01  -3.364644945000e-02  0.0
 -7.511000707500e-02  -3.300861548500e-02  0.0
 -8.863294498500e-02  -3.857322037500e-02  0.0
 -7.101409137000e-02  -4.349999130000e-02  0.0
 -7.101409137000e-02  -4.349999130000e-02  0.0
 -6.321986019500e-02  -3.774999082000e-02  0.0
 -5.542562902000e-02  -3.199999034000e-02  0.0
 -7.511000707500e-02  -3.300861548500e-02  0.0
 -6.731577590000e-02  -2.725861500500e-02  0.0
 -7.920592278000e-02  -2.251723967000e-02  0.0
 -7.920592278000e-02  -2.251723967000e-02  0.0
 -9.460296109000e-02  -1.125860985166e-02  0.0
 -1.099999994000e-01   1.996667010000e-08  0.0
 -9.272886069000e-02  -2.808184456000e-02  0.0
 -1.081258990000e-01  -1.682321474166e-02  0.0
 -1.062517986000e-01  -3.364644945000e-02  0.0
 -7.778175920000e-02  -9.192386270000e-02  0.0
 -6.788226403000e-02  -7.672107220000e-02  0.0
 -5.798276886000e-02  -6.151828170000e-02  0.0
 -8.652228117000e-02  -7.846192270500e-02  0.0
 -7.662278600000e-02  -6.325913220500e-02  0.0
 -9.526280314000e-02  -6.499998271000e-02  0.0
 -7.101409137000e-02  -4.349999130000e-02  0.0
 -8.863294498500e-02  -3.857322037500e-02  0.0
 -1.062517986000e-01  -3.364644945000e-02  0.0
 -8.313844725500e-02  -5.424998700500e-02  0.0
 -1.007573008700e-01  -4.932321608000e-02  0.0
 -9.526280314000e-02  -6.499998271000e-02  0.0
 -7.778175920000e-02  -9.192386270000e-02  0.0
 -8.652228117000e-02  -7.846192270500e-02  0.0
 -9.526280314000e-02  -6.499998271000e-02  0.0
 -9.639088065000e-02  -9.596193210000e-02  0.0
 -1.051314026200e-01  -8.249999210500e-02  0.0
 -1.150000021000e-01  -1.000000015000e-01  0.0
[...]
POINT_DATA 2244
SCALARS field1 double 1
LOOKUP_TABLE default
  2.224948692838e-03 
  6.527759857619e-02 
  1.283302484595e-01 
  1.237713237138e-03 
  6.429036312049e-02 
  2.504777814384e-04 
  2.409980370020e-01 
  1.207077224532e-01 
  4.174079044436e-04 
  1.213837317328e-01 
  1.093417183990e-03 
  1.769426463536e-03 
  1.265623448009e-01 
  1.637978362687e-01 
  2.010333277365e-01 
  1.746170415929e-01 
  2.118525330607e-01 
  2.226717383849e-01 
  2.026513398939e-01 
  1.641279336051e-01 
  1.256045273162e-01 
  1.587918434215e-01 
  1.202684371326e-01 
  1.149323469490e-01 
  2.741785515266e-01 
  2.485025902575e-01 
  2.228266289885e-01 
  2.392083118902e-01 
  2.135323506212e-01 
  2.042380722539e-01 
  2.635684498840e-01 
  1.452493767676e-01 
  2.693030365119e-02 
  2.541206769214e-01 
  1.358016038050e-01 
  2.446729039589e-01 
  1.157737106860e-01 
  1.599045865804e-01 
  2.040354624749e-01 
  1.598225037757e-01 
  2.039533796701e-01 
  2.038712968654e-01 
  2.445732090568e-01 
  2.559318500812e-01 
  2.672904911056e-01 
  2.519042127113e-01 
  2.632628537357e-01 
  2.592352163659e-01 
  1.799755395569e-01 
  2.091514602312e-01 
  2.383273809056e-01 
  2.059033271760e-01 
  2.350792478503e-01 
  2.318311147951e-01 
  1.324154201668e-03 
  9.043848266994e-02 
  1.795528111382e-01 
  5.702952773908e-02 
  1.461438562073e-01 
  1.127349012765e-01 
  2.007141320634e-01 
  2.140285756966e-01 
  2.273430193298e-01 
  2.242835989850e-01 
  2.375980426182e-01 
  2.478530659065e-01 
  2.292454144447e-01 
  2.150213159607e-01 
  2.007972174766e-01 
  2.047045318369e-01 
  1.904804333528e-01 
  1.801636492290e-01 
  2.772135257543e-01 
  2.621284602067e-01 
  2.470433946591e-01 
  2.533603019790e-01 
  2.382752364314e-01 
  2.295070782037e-01 
  2.015275661481e-01 
  2.257507440661e-01 
  2.499739219842e-01 
  2.037893482821e-01 
  2.280125262001e-01 
  2.060511304161e-01 
  2.774195950217e-01 
  2.541379174586e-01 
  2.308562398956e-01 
  2.890574780464e-01 
  2.657758004833e-01 
  3.006953610711e-01 
  1.782873955639e-01 
  1.909075132966e-01 
  2.035276310293e-01 
  1.465289752643e-01 
  1.591490929970e-01 
  1.147705549648e-01 
  1.647030623364e-03 
  2.441234543094e-03 
  3.235438462823e-03 
  1.484206856061e-01 
  1.492148895259e-01 
  2.951943405889e-01 
  2.738381633513e-01 
  2.398421149136e-01 
  2.058460664759e-01 
  2.624114315337e-01 
  2.284153830961e-01 
  2.509846997162e-01 
  2.884506370607e-01 
  2.799841922418e-01 
  2.715177474229e-01 
  2.946033632873e-01 
  2.861369184684e-01 
  3.007560895139e-01 
  2.876807428203e-01 
  2.558413512920e-01 
  2.240019597637e-01 
  2.801521210941e-01 
  2.483127295658e-01 
  2.726234993679e-01 
  2.893498933906e-01 
  2.952645419637e-01 
  3.011791905368e-01 
  3.051759635798e-01 
  3.110906121529e-01 
  3.210020337690e-01 
  3.006793990975e-01 
  2.872583088485e-01 
  2.738372185994e-01 
  2.737098383229e-01 
  2.602887480739e-01 
  2.467402775484e-01 
  2.256188590214e-01 
  2.632824153374e-01 
  3.009459716534e-01 
  2.351000995625e-01 
  2.727636558786e-01 
  2.445813401037e-01 
  2.974787822977e-01 
  2.992816088555e-01 
  3.010844354133e-01 
  3.096200911385e-01 
  3.114229176963e-01 
  3.217613999793e-01 
  2.732657024469e-01 
  2.625235945428e-01 
  2.517814866386e-01 
  2.594834844509e-01 
  2.487413765468e-01 
  2.457012664549e-01 
  2.662736677737e-01 
  2.860263023007e-01 
  3.057789368276e-01 
  1.548596435456e-01 
  1.746122780725e-01 
  4.344561931740e-02 
  2.128053324345e-01 
  2.345702615733e-01 
  2.563351907120e-01 
  2.435074867935e-01 
  2.652724159323e-01 
  2.742096411525e-01 
  2.528457506591e-01 
  2.631064611107e-01 
  2.733671715623e-01 
  2.520441968138e-01 
  2.623049072654e-01 
  2.512426429685e-01 
  7.603143457786e-02 
  1.211117229609e-01 
  1.661920113439e-01 
  9.890643162096e-02 
  1.439867200040e-01 
  1.217814286641e-01 
  1.620665514573e-01 
  2.027554102131e-01 
  2.434442689690e-01 
  1.873712414625e-01 
  2.280601002183e-01 
  2.126759314676e-01 
  2.123297159271e-01 
  1.681850800705e-01 
  1.240404442138e-01 
  1.882934366642e-01 
  1.441488008075e-01 
  1.642571574012e-01 
  1.609357313601e-01 
  1.919287301233e-01 
  2.229217288865e-01 
  2.025118256537e-01 
  2.335048244169e-01 
  2.440879199472e-01 
  2.781920419516e-01 
  2.771827710369e-01 
  2.761735001222e-01 
  2.667457070970e-01 
  2.657364361823e-01 
  2.552993722424e-01 
  2.140777921589e-01 
  2.289500458674e-01 
  2.438222995759e-01 
  2.352498259255e-01 
  2.501220796341e-01 
  2.564218596922e-01 
  2.754044768223e-01 
  2.646502282493e-01 
  2.538959796762e-01 
  2.620360443727e-01 
  2.512817957997e-01 
  2.486676119231e-01 
  1.645904747403e-01 
  1.207618051701e-01 
  7.693313559983e-02 
  1.530617446192e-01 
  1.092330750489e-01 
  1.415330144980e-01 
  2.989725401997e-01 
  2.655832554035e-01 
  2.321939706073e-01 
  2.690058875671e-01 
  2.356166027708e-01 
  2.390392349344e-01 
  2.458297518787e-01 
  2.510298302454e-01 
  2.562299086121e-01 
  2.383344199873e-01 
  2.435344983540e-01 
  2.308390880959e-01 
  3.167156724428e-01 
  2.981378365918e-01 
  2.795600007409e-01 
  3.278888141448e-01 
  3.093109782938e-01 
  3.390619558468e-01 
  3.137759741125e-01 
  3.054198018464e-01 
  2.970636295803e-01 
  2.766181248681e-01 
  2.682619526020e-01 
  2.394602756237e-01 
  2.771153515113e-01 
  3.028947475082e-01 
  3.286741435052e-01 
  2.764377337518e-01 
  3.022171297488e-01 
  2.757601159924e-01 
  3.298716423560e-01 
  3.034806222735e-01 
  2.770896021909e-01 
  3.155663064685e-01 
  2.891752863859e-01 
  3.012609705809e-01 
  3.794636566938e-01 
  3.556929917389e-01 
  3.319223267839e-01 
  3.389880386776e-01 
  3.152173737226e-01 
  2.985124206613e-01 
  2.810023199267e-01 
  2.780247148448e-01 
  2.750471097629e-01 
  3.069849345103e-01 
  3.040073294284e-01 
  3.329675490939e-01 
  2.966679084980e-01 
  3.063870786939e-01 
  3.161062488898e-01 
  3.385560136686e-01 
  3.482751838645e-01 
  3.804441188392e-01 
  3.159269040495e-01 
  2.779982931532e-01 
  2.400696822568e-01 
  2.973400737655e-01 
  2.594114628692e-01 
  2.787532434815e-01 
  4.052685958497e-01 
  3.937315505298e-01 
  3.821945052099e-01 
  3.615262100760e-01 
  3.499891647561e-01 
  3.177838243023e-01 
  1.418792909586e-03 
  1.523788892227e-01 
  3.033389855359e-01 
  1.159699148891e-04 
  1.510760662280e-01 
 -1.186853079808e-03 
  3.875361034228e-01 
  3.477756894195e-01 
  3.080152754161e-01 
  3.492660939750e-01 
  3.095056799716e-01 
  3.109960845271e-01 
  3.080476338664e-01 
  3.475595944361e-01 
  3.870715550058e-01 
  3.549069438602e-01 
  3.944189044299e-01 
  4.017662538539e-01 
  3.098932843348e-01 
  3.085514028449e-01 
  3.072095213550e-01 
  1.577677233509e-01 
  1.564258418611e-01 
  5.642162367081e-03 
  3.825248418474e-01 
  3.483197408134e-01 
  3.141146397794e-01 
  3.584650114637e-01 
  3.242599104296e-01 
  3.344051810799e-01 
  3.804768420908e-01 
  3.417551068615e-01 
  3.030333716322e-01 
  3.913796714699e-01 
  3.526579362406e-01 
  4.022825008490e-01 
  4.039071687983e-01 
  3.613014698776e-01 
  3.186957709569e-01 
  3.698520390398e-01 
  3.272463401191e-01 
  3.357969092812e-01 
  2.795689117870e-01 
  2.839666663955e-01 
  2.883644210039e-01 
  3.094440172738e-01 
  3.138417718823e-01 
  3.393191227606e-01 
  2.794116613202e-01 
  3.079233854627e-01 
  3.364351096052e-01 
  2.959903117359e-01 
  3.245020358784e-01 
  3.125689621517e-01 
 -1.383169025456e-03 
  6.255620792045e-02 
  1.264955848664e-01 
  2.434917713240e-03 
  6.637429465915e-02 
  6.253004451937e-03 
  1.249586626375e-01 
  1.675263557731e-01 
  2.100940489087e-01 
  1.678362966454e-01 
  2.104039897810e-01 
  2.107139306533e-01 
  2.403049458854e-01 
  1.235088235067e-01 
  6.712701127949e-03 
  1.196271570812e-01 
  2.831034702469e-03 
 -1.050631723010e-03 
 -4.241268227961e-03 
  1.111712725553e-02 
  2.647552273902e-02 
  3.518975712729e-02 
  5.054815261078e-02 
  7.462078248253e-02 
  1.267825651979e-03 
 -1.983930215476e-03 
 -5.235686082930e-03 
  6.005607023208e-02 
  5.680431436463e-02 
  1.188443148122e-01 
  1.998537182255e-01 
  1.005631702469e-01 
  1.272622268272e-03 
  1.665658535640e-01 
  6.727530558535e-02 
  1.332779889024e-01 
  1.257433180294e-01 
  1.704468819979e-01 
  2.151504459664e-01 
  6.707115500186e-02 
  1.117747189703e-01 
  8.398991974333e-03 
 -6.759038238629e-03 
  3.376121121221e-02 
  7.428146066304e-02 
  5.597064421974e-02 
  9.649089367058e-02 
  1.187003266781e-01 
  2.395981951343e-03 
  2.659585913017e-03 
  2.923189874692e-03 
  1.575410687432e-01 
  1.578046727048e-01 
  3.126861555350e-01 
  4.309425368516e-03 
  1.569181424917e-01 
  3.095268596149e-01 
  3.205380022214e-03 
  1.558140971454e-01 
  2.101334675912e-03 
  2.945730225435e-01 
  1.509847129535e-01 
  7.396403363606e-03 
  2.751360864601e-01 
  1.315477768701e-01 
  2.556991503766e-01 
  1.820419800747e-03 
  1.125731615270e-01 
  2.233259032532e-01 
  4.561107490642e-03 
  1.153138492169e-01 
  7.301795180537e-03 
  6.741356975442e-03 
  1.431292277111e-01 
  2.795170984469e-01 
  1.583936932838e-01 
  2.947815640195e-01 
  3.100460295922e-01 
  2.806887361805e-01 
  1.444640256274e-01 
  8.239315074219e-03 
  2.847657350058e-01 
  1.485410244527e-01 
  2.888427338311e-01 
  1.835536452464e-01 
  9.211477467410e-02 
  6.759041017750e-04 
  9.354584126969e-02 
  2.106970697367e-03 
  3.538037292959e-03 
  1.152848635828e-02 
  1.158911028497e-01 
  2.202537193411e-01 
  1.450488163255e-01 
  2.494114328170e-01 
  2.785691462928e-01 
  2.145553928726e-01 
  2.452167630549e-01 
  2.758781332373e-01 
  2.471955294790e-01 
  2.778568996613e-01 
  2.798356660854e-01 
  2.440630808285e-01 
  1.259595694662e-01 
  7.856058103764e-03 
  2.599062470168e-01 
  1.418027356545e-01 
  2.757494132052e-01 
  4.020821941929e-01 
  3.686453948300e-01 
  3.352085954671e-01 
  3.713485035609e-01 
  3.379117041980e-01 
  3.406148129288e-01 
  2.116049579314e-01 
  2.105860092751e-01 
  2.095670606188e-01 
  2.438304919380e-01 
  2.428115432817e-01 
  2.760560259446e-01 
  1.220682436918e-03 
  3.412370478343e-03 
  5.604058519767e-03 
  1.243819381772e-01 
  1.265736262186e-01 
  2.475431939174e-01 
  2.348515489183e-02 
  1.077744544323e-02 
 -1.930264005360e-03 
  1.058428666231e-02 
 -2.123422786283e-03 
 -2.316581567207e-03 
  2.913319548926e-01 
  2.959093043335e-01 
  3.004866537744e-01 
  2.705253768449e-01 
  2.751027262858e-01 
  2.497187987973e-01 
  3.024505238779e-01 
  3.113876100313e-01 
  3.203246961847e-01 
  3.123138027352e-01 
  3.212508888887e-01 
  3.221770815926e-01 
  3.188658182371e-01 
  3.039223567434e-01 
  2.889788952497e-01 
  3.035738353443e-01 
  2.886303738506e-01 
  2.882818524515e-01 
  2.885435023599e-01 
  3.035063938149e-01 
  3.184692852700e-01 
  2.941804541148e-01 
  3.091433455698e-01 
  2.998174058697e-01 
  2.876701963908e-01 
  2.891939914206e-01 
  2.907177864504e-01 
  2.560181449620e-01 
  2.575419399917e-01 
  2.243660935331e-01 
  1.387035967569e-02 
 -4.927131474713e-04 
 -1.485578597063e-02 
  1.275690051342e-01 
  1.132059323111e-01 
  2.412676505928e-01 
  3.020057081785e-01 
  2.641498809034e-01 
  2.262940536282e-01 
  2.744894488151e-01 
  2.366336215399e-01 
  2.469731894517e-01 
  3.011774298130e-01 
  3.001025588344e-01 
  2.990276878558e-01 
  2.645160866389e-01 
  2.634412156603e-01 
  2.278547434647e-01 
  1.591634740686e-01 
  2.026255663041e-01 
  2.460876585397e-01 
  1.916587018296e-01 
  2.351207940652e-01 
  2.241539295906e-01 
  2.238500929134e-01 
  1.922688750106e-01 
  1.606876571077e-01 
  1.790734145224e-01 
  1.474921966195e-01 
  1.342967361314e-01 
  2.448850010949e-01 
  2.325951346269e-01 
  2.203052681589e-01 
  2.495904992125e-01 
  2.373006327446e-01 
  2.542959973302e-01 
  2.200081769610e-01 
  2.320522427686e-01 
  2.440963085761e-01 
  1.901412569435e-01 
  2.021853227510e-01 
  1.602743369259e-01 
  2.756690334309e-01 
  2.642234199059e-01 
  2.527778063810e-01 
  2.806311686665e-01 
  2.691855551415e-01 
  2.855933039021e-01 
  2.481942473351e-01 
  2.502203521886e-01 
  2.522464570420e-01 
  2.700476854854e-01 
  2.720737903389e-01 
  2.919011236357e-01 
  1.613107568934e-01 
  1.510340895914e-01 
  1.407574222893e-01 
  1.186137514827e-01 
  1.083370841807e-01 
  7.591674607204e-02 
  1.593694751004e-01 
  1.914755483341e-01 
  2.235816215677e-01 
  1.503314764957e-01 
  1.824375497293e-01 
  1.412934778909e-01 
  2.226326561732e-01 
  1.920115578176e-01 
  1.613904594620e-01 
  1.822605548458e-01 
  1.516394564902e-01 
  1.418884535185e-01 
  2.914553432866e-01 
  2.724987126166e-01 
  2.535420819465e-01 
  2.775748549541e-01 
  2.586182242841e-01 
  2.636943666217e-01 
  2.228763976309e-01 
  2.177227586092e-01 
  2.125691195875e-01 
  1.749378138829e-01 
  1.697841748612e-01 
  1.269992301349e-01 
  2.234407951115e-01 
  2.576606221117e-01 
  2.918804491119e-01 
  2.193917817899e-01 
  2.536116087901e-01 
  2.153427684682e-01 
  1.262265558490e-01 
  1.316434737873e-01 
  1.370603917256e-01 
  6.336946117224e-02 
  6.878637911055e-02 
  5.123664954686e-04 
  1.383926203688e-01 
  1.322547377589e-01 
  1.261168551490e-01 
  1.761905768957e-01 
  1.700526942858e-01 
  2.139885334225e-01 
  2.117486371751e-01 
  1.095785178652e-01 
  7.408398555296e-03 
  1.053699185634e-01 
  3.199799253508e-03 
 -1.008800048281e-03 
  1.975789102549e-02 
  1.143651786105e-02 
  3.115144696606e-03 
  1.511804188770e-01 
  1.428590457126e-01 
  2.826029467285e-01 
  2.160333195883e-01 
  2.126608067911e-01 
  2.092882939938e-01 
  1.769693581747e-01 
  1.735968453774e-01 
  1.379053967610e-01 
  2.536315481556e-01 
  1.253664752840e-01 
 -2.898597587655e-03 
  1.377503702093e-01 
  9.485297337629e-03 
  2.186919226291e-02 
  2.598580243531e-01 
  2.665467808334e-01 
  2.732355373137e-01 
  2.505502214935e-01 
  2.572389779738e-01 
  2.412424186339e-01 
  2.723815594538e-01 
  2.670809278878e-01 
  2.617802963218e-01 
  2.633296203347e-01 
  2.580289887687e-01 
  2.542776812156e-01 
  2.042755711409e-01 
  2.242355793697e-01 
  2.441955875986e-01 
  2.033902482754e-01 
  2.233502565043e-01 
  2.025049254100e-01 
  2.398240496632e-01 
  2.233381258417e-01 
  2.068522020201e-01 
  2.501742080756e-01 
  2.336882842540e-01 
  2.605243664879e-01 
  2.065584010221e-01 
  2.263358097695e-01 
  2.461132185169e-01 
  2.351214353866e-01 
  2.548988441340e-01 
  2.636844697511e-01 
  2.077712831967e-01 
  2.027203366671e-01 
  1.976693901375e-01 
  1.717153597351e-01 
  1.666644132055e-01 
  1.356594362735e-01 
  2.728752132056e-01 
  2.846029821235e-01 
  2.963307510414e-01 
  2.579161497842e-01 
  2.696439187021e-01 
  2.429570863628e-01 
  2.629138954137e-01 
  2.355665808949e-01 
  2.082192663761e-01 
  2.402810168596e-01 
  2.129337023408e-01 
  2.176481383055e-01 
  2.912425553442e-01 
  2.773745782744e-01 
  2.635066012046e-01 
  2.541050018929e-01 
  2.402370248232e-01 
  2.169674484417e-01 
  2.112732142177e-01 
  2.354271248951e-01 
  2.595810355724e-01 
  1.106803208729e-01 
  1.348342315503e-01 
  1.008742752813e-02 
  2.522216014254e-01 
  2.370205455846e-01 
  2.218194897438e-01 
  2.684491134177e-01 
  2.532480575769e-01 
  2.846766254101e-01 
  5.475206051530e-02 
  1.555806691498e-01 
  2.564092777842e-01 
  1.239031541762e-01 
  2.247317628107e-01 
  1.930542478371e-01 
  2.549525401637e-02 
  1.183079599127e-02 
 -1.833662033826e-03 
  5.057131420399e-02 
  3.690685617889e-02 
  7.564737439161e-02 
  2.322783406896e-02 
  1.027240384537e-02 
 -2.683026378225e-03 
  1.114497688141e-02 
 -1.810453342184e-03 
 -9.378803061436e-04 
  7.662270684996e-02 
  3.867231787182e-02 
  7.219288936880e-04 
  1.032256760771e-01 
  6.527528709900e-02 
  1.298286453043e-01 
  1.964279753537e-01 
  1.634334037541e-01 
  1.304388321545e-01 
  9.723769289225e-02 
  6.424312129267e-02 
 -1.952589569167e-03 
  2.018456721472e-01 
  2.447412235642e-01 
  2.876367749812e-01 
  2.132562399663e-01 
  2.561517913833e-01 
  2.246668077855e-01 
  1.993310012739e-01 
  2.129372686467e-01 
  2.265435360194e-01 
  1.658723244379e-01 
  1.794785918107e-01 
  1.324136476019e-01 
  1.191942341739e-03 
  3.883400305109e-02 
  7.647606376043e-02 
 -2.280246274386e-05 
  3.761925824660e-02 
 -1.237547267227e-03 
  1.621303452686e-01 
  1.191379224556e-01 
  7.614549964267e-02 
  1.471766031022e-01 
  1.041841802892e-01 
  1.322228609358e-01 
 -1.138839247988e-03 
  9.985394603285e-04 
  3.135918168645e-03 
  9.808599320321e-02 
  1.002233719115e-01 
  1.973108256544e-01 
  2.920776027495e-01 
  1.496511925947e-01 
  7.224782439887e-03 
  2.817829173822e-01 
  1.393565072274e-01 
  2.714882320149e-01 
  2.284760497354e-01 
  1.653852361687e-01 
  1.022944226019e-01 
  2.637295889143e-01 
  2.006387753476e-01 
  2.989831280932e-01 
  1.274742694182e-01 
  6.491316657553e-02 
  2.352063732869e-03 
  1.200959124728e-01 
  5.753480963011e-02 
  1.127175555274e-01 
  2.886717332650e-01 
  1.452131307208e-01 
  1.754528176613e-03 
  1.476828170821e-01 
  4.224214537932e-03 
  6.693900899250e-03 
  2.811358884407e-01 
  1.399626258337e-01 
 -1.210636773264e-03 
  1.431673964330e-01 
  1.994133826008e-03 
  5.198904425280e-03 
  2.384553147194e-01 
  1.217812640377e-01 
  5.107213355956e-03 
  2.225442202741e-01 
  1.058701695923e-01 
  2.066331258287e-01 
  1.960686292409e-01 
  9.842836290529e-02 
  7.880965696556e-04 
  2.357656804300e-01 
  1.381254140944e-01 
  2.754627316190e-01 
  2.556859032203e-01 
  2.527428018945e-01 
  2.497997005686e-01 
  2.586149915956e-01 
  2.556718902698e-01 
  2.615440799709e-01 
  3.190264369624e-01 
  1.610754782387e-01 
  3.124519514956e-03 
  1.608576144035e-01 
  2.906655679797e-03 
  2.688791844638e-03 
  2.863061588992e-01 
  2.818885920876e-01 
  2.774710252760e-01 
  3.121246570560e-01 
  3.077070902444e-01 
  3.379431552129e-01 
  2.744676905293e-01 
  2.815614360858e-01 
  2.886551816422e-01 
  2.367518321123e-01 
  2.438455776688e-01 
  1.990359736953e-01 
  3.111249631070e-01 
  2.852011799798e-01 
  2.592773968526e-01 
  3.029639878279e-01 
  2.770402047007e-01 
  2.948030125488e-01 
  2.620113240693e-01 
  2.539983033858e-01 
  2.459852827023e-01 
  2.782527462741e-01 
  2.702397255906e-01 
  2.944941684790e-01 
  2.984414564232e-01 
  2.860747697801e-01 
  2.737080831371e-01 
  3.177456902845e-01 
  3.053790036415e-01 
  3.370499241458e-01 
  3.374803290051e-01 
  3.607669703184e-01 
  3.840536116316e-01 
  3.174972911607e-01 
  3.407839324740e-01 
  2.975142533164e-01 
  3.378266136601e-01 
  3.090263576652e-01 
  2.802261016704e-01 
  3.265117805826e-01 
  2.977115245878e-01 
  3.151969475052e-01 
  2.858392309084e-01 
  3.107858724893e-01 
  3.357325140703e-01 
  2.801081589925e-01 
  3.050548005735e-01 
  2.743770870766e-01 
  3.142772238260e-01 
  3.118168513084e-01 
  3.093564787908e-01 
  3.514498674581e-01 
  3.489894949404e-01 
  3.886225110901e-01 
  3.155096354114e-01 
  3.005649651060e-01 
  2.856202948005e-01 
  1.629518492448e-01 
  1.480071789394e-01 
  1.039406307826e-02 
  3.186540903247e-01 
  3.523869999051e-01 
  3.861199094854e-01 
  3.604180301251e-01 
  3.941509397055e-01 
  4.021819699256e-01 
  3.855994254012e-01 
  3.510212770412e-01 
  3.164431286813e-01 
  3.406375064927e-01 
  3.060593581328e-01 
  2.956755875842e-01 
  2.938370078419e-01 
  3.042011100846e-01 
  3.145652123273e-01 
  3.180602305256e-01 
  3.284243327683e-01 
  3.422834532094e-01 
  3.131625923541e-01 
  3.031382673871e-01 
  2.931139424200e-01 
  2.850823339460e-01 
  2.750580089789e-01 
  2.570020755379e-01 
  3.979825693627e-01 
  3.932752794620e-01 
  3.885679895613e-01 
  3.534091113877e-01 
  3.487018214870e-01 
  3.088356534127e-01 
  3.152378335599e-01 
  3.499817971428e-01 
  3.847257607258e-01 
  3.260517340439e-01 
  3.607956976268e-01 
  3.368656345279e-01 
  7.141775693344e-03 
  1.576614163855e-01 
  3.081810570777e-01 
  1.617440751130e-01 
  3.122637158051e-01 
  3.163463745326e-01 