# vtk DataFile Version 2
NuDG++ 2D simulation
ASCII
DATASET UNSTRUCTURED_GRID

POINTS 2244 double
 -1.656250060000e-01  -2.000000030000e-01  0.0
 -1.828125045000e-01  -1.772221997500e-01  0.0
 -2.000000030000e-01  -1.544443965000e-01  0.0
 -1.828125045000e-01  -2.000000030000e-01  0.0
 -2.000000030000e-01  -1.772221997500e-01  0.0
 -2.000000030000e-01  -2.000000030000e-01  0.0
 -6.428571790000e-02  -1.700000018000e-01  0.0
 -8.058035746000e-02  -1.850000024000e-01  0.0
 -9.687499702000e-02  -2.000000030000e-01  0.0
 -6.339285895000e-02  -1.850000024000e-01  0.0
 -7.968749851000e-02  -2.000000030000e-01  0.0
 -6.250000000000e-02  -2.000000030000e-01  0.0
 -2.000000030000e-01  -1.544443965000e-01  0.0
 -1.750000045000e-01  -1.379364989500e-01  0.0
 -1.500000060000e-01  -1.214286014000e-01  0.0
 -2.000000030000e-01  -1.316666491500e-01  0.0
 -1.750000045000e-01  -1.151587516000e-01  0.0
 -2.000000030000e-01  -1.088889018000e-01  0.0
 -1.500000060000e-01  -1.214286014000e-01  0.0
 -1.750000045000e-01  -1.379364989500e-01  0.0
 -2.000000030000e-01  -1.544443965000e-01  0.0
 -1.500000060000e-01  -1.457143016000e-01  0.0
 -1.750000045000e-01  -1.622221991500e-01  0.0
 -1.500000060000e-01  -1.700000018000e-01  0.0
 -1.500000060000e-01  -7.285714149000e-02  0.0
 -1.750000045000e-01  -9.087302164500e-02  0.0
 -2.000000030000e-01  -1.088889018000e-01  0.0
 -1.500000060000e-01  -9.714287144500e-02  0.0
 -1.750000045000e-01  -1.151587516000e-01  0.0
 -1.500000060000e-01  -1.214286014000e-01  0.0
  1.832975030000e+00  -4.625000060000e-02  0.0
  1.853987515000e+00  -1.231250018000e-01  0.0
  1.875000000000e+00  -2.000000030000e-01  0.0
  1.916487515000e+00  -7.187499851000e-02  0.0
  1.937500000000e+00  -1.487499997100e-01  0.0
  2.000000000000e+00  -9.749999642000e-02  0.0
 -1.500000060000e-01  -1.700000018000e-01  0.0
 -1.360000037000e-01  -1.525000036000e-01  0.0
 -1.220000014000e-01  -1.350000054000e-01  0.0
 -1.500000060000e-01  -1.457143016000e-01  0.0
 -1.360000037000e-01  -1.282143034000e-01  0.0
 -1.500000060000e-01  -1.214286014000e-01  0.0
  2.849999964000e-01  -2.333333530000e-02  0.0
  2.837499976000e-01  -8.166666795000e-02  0.0
  2.824999988000e-01  -1.400000006000e-01  0.0
  3.174999952000e-01  -4.666666780000e-02  0.0
  3.162499964000e-01  -1.050000004500e-01  0.0
  3.499999940000e-01  -7.000000030000e-02  0.0
 -1.071429029000e-01  -1.700000018000e-01  0.0
 -8.571431040000e-02  -1.700000018000e-01  0.0
 -6.428571790000e-02  -1.700000018000e-01  0.0
 -9.857145324000e-02  -1.525000036000e-01  0.0
 -7.714286074000e-02  -1.525000036000e-01  0.0
 -9.000000358000e-02  -1.350000054000e-01  0.0
 -1.312499940000e-01  -2.000000030000e-01  0.0
 -1.191964484500e-01  -1.850000024000e-01  0.0
 -1.071429029000e-01  -1.700000018000e-01  0.0
 -1.406250000000e-01  -1.850000024000e-01  0.0
 -1.285714544500e-01  -1.700000018000e-01  0.0
 -1.500000060000e-01  -1.700000018000e-01  0.0
 -1.220000014000e-01  -1.350000054000e-01  0.0
 -1.060000024900e-01  -1.350000054000e-01  0.0
 -9.000000358000e-02  -1.350000054000e-01  0.0
 -1.185000017500e-01  -1.175000034500e-01  0.0
 -1.025000028400e-01  -1.175000034500e-01  0.0
 -1.150000021000e-01  -1.000000015000e-01  0.0
 -9.000000358000e-02  -1.350000054000e-01  0.0
 -1.060000024900e-01  -1.350000054000e-01  0.0
 -1.220000014000e-01  -1.350000054000e-01  0.0
 -9.857145324000e-02  -1.525000036000e-01  0.0
 -1.145714521500e-01  -1.525000036000e-01  0.0
 -1.071429029000e-01  -1.700000018000e-01  0.0
 -7.778175920000e-02  -9.192386270000e-02  0.0
 -9.639088065000e-02  -9.596193210000e-02  0.0
 -1.150000021000e-01  -1.000000015000e-01  0.0
 -8.389088139000e-02  -1.134619340500e-01  0.0
 -1.025000028400e-01  -1.175000034500e-01  0.0
 -9.000000358000e-02  -1.350000054000e-01  0.0
 -1.220000014000e-01  -1.350000054000e-01  0.0
 -1.185000017500e-01  -1.175000034500e-01  0.0
 -1.150000021000e-01  -1.000000015000e-01  0.0
 -1.360000037000e-01  -1.282143034000e-01  0.0
 -1.325000040500e-01  -1.107143014500e-01  0.0
 -1.500000060000e-01  -1.214286014000e-01  0.0
 -7.778175920000e-02  -9.192386270000e-02  0.0
 -8.389088139000e-02  -1.134619340500e-01  0.0
 -9.000000358000e-02  -1.350000054000e-01  0.0
 -6.639088876500e-02  -1.022535823500e-01  0.0
 -7.250001095500e-02  -1.237916537000e-01  0.0
 -5.500001833000e-02  -1.125833020000e-01  0.0
 -1.071429029000e-01  -1.700000018000e-01  0.0
 -1.145714521500e-01  -1.525000036000e-01  0.0
 -1.220000014000e-01  -1.350000054000e-01  0.0
 -1.285714544500e-01  -1.700000018000e-01  0.0
 -1.360000037000e-01  -1.525000036000e-01  0.0
 -1.500000060000e-01  -1.700000018000e-01  0.0
  6.250000093000e-03  -2.000000030000e-01  0.0
  4.062500153650e-02  -2.000000030000e-01  0.0
  7.500000298000e-02  -2.000000030000e-01  0.0
  1.383928512150e-02  -1.850000024000e-01  0.0
  4.821428656500e-02  -1.850000024000e-01  0.0
  2.142857015000e-02  -1.700000018000e-01  0.0
 -1.500000060000e-01  -7.285714149000e-02  0.0
 -1.500000060000e-01  -9.714287144500e-02  0.0
 -1.500000060000e-01  -1.214286014000e-01  0.0
 -1.325000040500e-01  -8.642857149500e-02  0.0
 -1.325000040500e-01  -1.107143014500e-01  0.0
 -1.150000021000e-01  -1.000000015000e-01  0.0
 -2.000000030000e-01  -6.333333254000e-02  0.0
 -1.750000045000e-01  -6.809523701500e-02  0.0
 -1.500000060000e-01  -7.285714149000e-02  0.0
 -1.750000045000e-01  -4.380952660000e-02  0.0
 -1.500000060000e-01  -4.857143107500e-02  0.0
 -1.500000060000e-01  -2.428572066000e-02  0.0
 -2.000000030000e-01  -6.333333254000e-02  0.0
 -2.000000030000e-01  -8.611111717000e-02  0.0
 -2.000000030000e-01  -1.088889018000e-01  0.0
 -1.750000045000e-01  -6.809523701500e-02  0.0
 -1.750000045000e-01  -9.087302164500e-02  0.0
 -1.500000060000e-01  -7.285714149000e-02  0.0
 -2.000000030000e-01  -6.333333254000e-02  0.0
 -1.750000045000e-01  -4.380952660000e-02  0.0
 -1.500000060000e-01  -2.428572066000e-02  0.0
 -2.000000030000e-01  -4.055555630500e-02  0.0
 -1.750000045000e-01  -2.103175036500e-02  0.0
 -2.000000030000e-01  -1.777778007000e-02  0.0
 -1.500000060000e-01  -2.428572066000e-02  0.0
 -1.500000060000e-01  -4.857143107500e-02  0.0
 -1.500000060000e-01  -7.285714149000e-02  0.0
 -1.281259023000e-01  -2.896608505500e-02  0.0
 -1.281259023000e-01  -5.325179547000e-02  0.0
 -1.062517986000e-01  -3.364644945000e-02  0.0
 -1.099999994000e-01   1.996667010000e-08  0.0
 -1.300000027000e-01  -1.214285034666e-02  0.0
 -1.500000060000e-01  -2.428572066000e-02  0.0
 -1.081258990000e-01  -1.682321474166e-02  0.0
 -1.281259023000e-01  -2.896608505500e-02  0.0
 -1.062517986000e-01  -3.364644945000e-02  0.0
 -1.500000060000e-01  -2.428572066000e-02  0.0
 -1.500000060000e-01   0.000000000000e+00  0.0
 -1.500000060000e-01   2.428572066000e-02  0.0
 -1.750000045000e-01  -2.103175036500e-02  0.0
 -1.750000045000e-01   3.253970295000e-03  0.0
 -2.000000030000e-01  -1.777778007000e-02  0.0
 -1.500000060000e-01  -7.285714149000e-02  0.0
 -1.226314045700e-01  -6.892856210000e-02  0.0
 -9.526280314000e-02  -6.499998271000e-02  0.0
 -1.281259023000e-01  -5.325179547000e-02  0.0
 -1.007573008700e-01  -4.932321608000e-02  0.0
 -1.062517986000e-01  -3.364644945000e-02  0.0
  3.499999940000e-01   1.400000006000e-01  0.0
  4.021931737500e-01   1.224999986500e-01  0.0
  4.543863535000e-01   1.049999967000e-01  0.0
  4.187500029500e-01   1.749999970000e-01  0.0
  4.709431827000e-01   1.574999950500e-01  0.0
  4.875000119000e-01   2.099999934000e-01  0.0
 -7.101409137000e-02  -4.349999130000e-02  0.0
 -8.313844725500e-02  -5.424998700500e-02  0.0
 -9.526280314000e-02  -6.499998271000e-02  0.0
 -6.449843011500e-02  -5.250913650000e-02  0.0
 -7.662278600000e-02  -6.325913220500e-02  0.0
 -5.798276886000e-02  -6.151828170000e-02  0.0
 -9.526280314000e-02  -6.499998271000e-02  0.0
 -1.226314045700e-01  -6.892856210000e-02  0.0
 -1.500000060000e-01  -7.285714149000e-02  0.0
 -1.051314026200e-01  -8.249999210500e-02  0.0
 -1.325000040500e-01  -8.642857149500e-02  0.0
 -1.150000021000e-01  -1.000000015000e-01  0.0
 -6.181925908000e-02  -1.656441018000e-02  0.0
 -7.051259093000e-02  -1.954082492500e-02  0.0
 -7.920592278000e-02  -2.251723967000e-02  0.0
 -5.862244405000e-02  -2.428220026000e-02  0.0
 -6.731577590000e-02  -2.725861500500e-02  0.0
 -5.542562902000e-02  -3.199999034000e-02  0.0
 -7.920592278000e-02  -2.251723967000e-02  0.0
 -9.272886069000e-02  -2.808184456000e-02  0.0
 -1.062517986000e-01  -3.364644945000e-02  0.0
 -7.511000707500e-02  -3.300861548500e-02  0.0
 -8.863294498500e-02  -3.857322037500e-02  0.0
 -7.101409137000e-02  -4.349999130000e-02  0.0
 -7.101409137000e-02  -4.349999130000e-02  0.0
 -6.321986019500e-02  -3.774999082000e-02  0.0
 -5.542562902000e-02  -3.199999034000e-02  0.0
 -7.511000707500e-02  -3.300861548500e-02  0.0
 -6.731577590000e-02  -2.725861500500e-02  0.0
 -7.920592278000e-02  -2.251723967000e-02  0.0
 -7.920592278000e-02  -2.251723967000e-02  0.0
 -9.460296109000e-02  -1.125860985166e-02  0.0
 -1.099999994000e-01   1.996667010000e-08  0.0
 -9.272886069000e-02  -2.808184456000e-02  0.0
 -1.081258990000e-01  -1.682321474166e-02  0.0
 -1.062517986000e-01  -3.364644945000e-02  0.0
 -7.778175920000e-02  -9.192386270000e-02  0.0
 -6.788226403000e-02  -7.672107220000e-02  0.0
 -5.798276886000e-02  -6.151828170000e-02  0.0
 -8.652228117000e-02  -7.846192270500e-02  0.0
 -7.662278600000e-02  -6.325913220500e-02  0.0
 -9.526280314000e-02  -6.499998271000e-02  0.0
 -7.101409137000e-02  -4.349999130000e-02  0.0
 -8.863294498500e-02  -3.857322037500e-02  0.0
 -1.062517986000e-01  -3.364644945000e-02  0.0
 -8.313844725500e-02  -5.424998700500e-02  0.0
 -1.007573008700e-01  -4.932321608000e-02  0.0
 -9.526280314000e-02  -6.499998271000e-02  0.0
 -7.778175920000e-02  -9.192386270000e-02  0.0
 -8.652228117000e-02  -7.846192270500e-02  0.0
 -9.526280314000e-02  -6.499998271000e-02  0.0
 -9.639088065000e-02  -9.596193210000e-02  0.0
 -1.051314026200e-01  -8.249999210500e-02  0.0
 -1.150000021000e-01  -1.000000015000e-01  0.0
[...]
POINT_DATA 2244
SCALARS field1 double 1
LOOKUP_TABLE default
  2.340547739896e-03 
  6.973819174501e-02 
  1.371358357501e-01 
  1.267960927380e-03 
  6.866560493250e-02 
  1.953741148640e-04 
  2.511357287088e-01 
  1.255926045711e-01 
  4.948043328802e-05 
  1.264770508901e-01 
  9.339267523465e-04 
  1.818373071405e-03 
  1.352823516020e-01 
  1.750796301963e-01 
  2.148769087905e-01 
  1.865472190656e-01 
  2.263444976599e-01 
  2.378120865292e-01 
  2.164750416687e-01 
  1.754787424832e-01 
  1.344824432977e-01 
  1.681984468343e-01 
  1.272021476488e-01 
  1.199218519999e-01 
  2.933464061414e-01 
  2.656716732360e-01 
  2.379969403306e-01 
  2.557745945777e-01 
  2.280998616723e-01 
  2.182027830139e-01 
  2.726409240819e-01 
  1.474649640697e-01 
  2.228900405748e-02 
  2.652268930094e-01 
  1.400509329972e-01 
  2.578128619368e-01 
  1.206004917691e-01 
  1.678965063087e-01 
  2.151925208482e-01 
  1.691724347677e-01 
  2.164684493073e-01 
  2.177443777664e-01 
  2.629794759945e-01 
  2.738233467955e-01 
  2.846672175965e-01 
  2.702904585453e-01 
  2.811343293463e-01 
  2.776014410961e-01 
  1.851693627432e-01 
  2.169362990190e-01 
  2.487032352947e-01 
  2.148732733949e-01 
  2.466402096706e-01 
  2.445771840465e-01 
  1.043477395398e-03 
  9.291097411262e-02 
  1.847784708298e-01 
  5.907400257442e-02 
  1.509414992916e-01 
  1.171045277534e-01 
  2.118841956077e-01 
  2.260390171781e-01 
  2.401938387485e-01 
  2.391288249832e-01 
  2.532836465536e-01 
  2.663734543587e-01 
  2.419802858636e-01 
  2.269721461909e-01 
  2.119640065181e-01 
  2.136689251528e-01 
  1.986607854801e-01 
  1.853575644420e-01 
  2.967704709164e-01 
  2.811739600071e-01 
  2.655774490977e-01 
  2.696456386633e-01 
  2.540491277540e-01 
  2.425208064103e-01 
  2.128200649102e-01 
  2.405967127667e-01 
  2.683733606232e-01 
  2.163350698959e-01 
  2.441117177524e-01 
  2.198500748816e-01 
  2.969312566900e-01 
  2.702895056893e-01 
  2.436477546886e-01 
  3.083833897259e-01 
  2.817416387252e-01 
  3.198355227618e-01 
  1.834653498496e-01 
  1.991055698029e-01 
  2.147457897562e-01 
  1.514263642483e-01 
  1.670665842016e-01 
  1.193873786470e-01 
  1.647960257179e-03 
  2.509290709038e-03 
  3.370621160896e-03 
  1.576371231486e-01 
  1.584984536005e-01 
  3.136262860401e-01 
  2.930106606640e-01 
  2.563437036582e-01 
  2.196767466525e-01 
  2.811379101220e-01 
  2.444709531162e-01 
  2.692651595800e-01 
  3.078546494568e-01 
  2.992460214203e-01 
  2.906373933838e-01 
  3.148344249170e-01 
  3.062257968805e-01 
  3.218142003773e-01 
  3.071081043958e-01 
  2.731288535685e-01 
  2.391496027412e-01 
  2.993928157564e-01 
  2.654135649292e-01 
  2.916775271171e-01 
  3.088529410675e-01 
  3.155046564628e-01 
  3.221563718581e-01 
  3.257473718774e-01 
  3.323990872727e-01 
  3.426418026874e-01 
  3.219163304282e-01 
  3.075207048579e-01 
  2.931250792876e-01 
  2.944883507115e-01 
  2.800927251412e-01 
  2.670603709949e-01 
  2.458469983710e-01 
  2.840453092502e-01 
  3.222436201294e-01 
  2.551937574267e-01 
  2.933920683058e-01 
  2.645405164823e-01 
  3.184476265778e-01 
  3.206694563850e-01 
  3.228912861922e-01 
  3.308828732008e-01 
  3.331047030080e-01 
  3.433181198237e-01 
  2.924786691105e-01 
  2.815036002847e-01 
  2.705285314590e-01 
  2.792116881480e-01 
  2.682366193223e-01 
  2.659447071856e-01 
  2.820401703001e-01 
  3.045538606280e-01 
  3.270675509560e-01 
  1.638802325498e-01 
  1.863939228777e-01 
  4.572029479941e-02 
  2.314912628897e-01 
  2.534833260834e-01 
  2.754753892772e-01 
  2.636609592825e-01 
  2.856530224763e-01 
  2.958306556754e-01 
  2.716443824394e-01 
  2.821210511837e-01 
  2.925977199280e-01 
  2.706432991417e-01 
  2.811199678860e-01 
  2.696422158441e-01 
  8.404360943415e-02 
  1.327739034267e-01 
  1.815041974193e-01 
  1.091858804119e-01 
  1.579161744045e-01 
  1.343281513897e-01 
  1.767596532667e-01 
  2.200940923953e-01 
  2.634285315240e-01 
  2.040726703201e-01 
  2.474071094487e-01 
  2.313856873735e-01 
  2.310510384073e-01 
  1.839581198927e-01 
  1.368652013781e-01 
  2.051983620518e-01 
  1.581054435373e-01 
  1.793456856964e-01 
  1.756153870608e-01 
  2.092770167407e-01 
  2.429386464205e-01 
  2.198513777576e-01 
  2.535130074374e-01 
  2.640873684543e-01 
  2.977356874791e-01 
  2.978680389957e-01 
  2.980003905122e-01 
  2.860201678535e-01 
  2.861525193700e-01 
  2.743046482279e-01 
  2.329271916119e-01 
  2.484476289114e-01 
  2.639680662108e-01 
  2.542911700790e-01 
  2.698116073784e-01 
  2.756551485461e-01 
  2.947848163545e-01 
  2.837070844007e-01 
  2.726293524469e-01 
  2.809121606053e-01 
  2.698344286515e-01 
  2.670395048561e-01 
  1.797213263529e-01 
  1.324475419350e-01 
  8.517375751714e-02 
  1.679828255852e-01 
  1.207090411673e-01 
  1.562443248175e-01 
  3.182293940600e-01 
  2.815505526242e-01 
  2.448717111884e-01 
  2.839174892466e-01 
  2.472386478108e-01 
  2.496055844332e-01 
  2.569248748641e-01 
  2.629579241346e-01 
  2.689909734051e-01 
  2.523760172687e-01 
  2.584090665392e-01 
  2.478271596734e-01 
  3.379486478296e-01 
  3.166856669930e-01 
  2.954226861564e-01 
  3.505107957202e-01 
  3.292478148836e-01 
  3.630729436109e-01 
  3.349248351769e-01 
  3.255925351988e-01 
  3.162602352207e-01 
  2.925144893914e-01 
  2.831821894133e-01 
  2.501041436059e-01 
  2.965810161982e-01 
  3.249227443415e-01 
  3.532644724849e-01 
  2.970640131940e-01 
  3.254057413373e-01 
  2.975470101897e-01 
  3.545946094983e-01 
  3.255741951000e-01 
  2.965537807018e-01 
  3.377636957240e-01 
  3.087432813258e-01 
  3.209327819497e-01 
  4.072485086289e-01 
  3.819457892247e-01 
  3.566430698205e-01 
  3.626934430217e-01 
  3.373907236175e-01 
  3.181383774145e-01 
  3.054595538937e-01 
  3.011457008234e-01 
  2.968318477532e-01 
  3.316386176210e-01 
  3.273247645508e-01 
  3.578176813484e-01 
  3.161369210813e-01 
  3.268349482635e-01 
  3.375329754457e-01 
  3.622491023744e-01 
  3.729471295566e-01 
  4.083612836675e-01 
  3.371625416491e-01 
  2.940152692577e-01 
  2.508679968662e-01 
  3.158787189568e-01 
  2.727314465654e-01 
  2.945948962645e-01 
  4.352493546920e-01 
  4.226893659149e-01 
  4.101293771378e-01 
  3.873306414199e-01 
  3.747706526428e-01 
  3.394119281479e-01 
  1.425174679353e-03 
  1.620037037428e-01 
  3.225822328062e-01 
 -1.570625370651e-04 
  1.604214665264e-01 
 -1.739299753484e-03 
  4.159624424472e-01 
  3.723602502767e-01 
  3.287580581062e-01 
  3.757780223057e-01 
  3.321758301352e-01 
  3.355936021643e-01 
  3.284732679993e-01 
  3.720103510891e-01 
  4.155474341788e-01 
  3.797215859830e-01 
  4.232586690727e-01 
  4.309699039666e-01 
  3.344377182360e-01 
  3.310912061510e-01 
  3.277446940660e-01 
  1.703279472519e-01 
  1.669814351670e-01 
  6.218176267942e-03 
  4.103720417032e-01 
  3.745642719403e-01 
  3.387565021774e-01 
  3.848183020797e-01 
  3.490105323168e-01 
  3.592645624563e-01 
  4.074072105033e-01 
  3.649317499349e-01 
  3.224562893664e-01 
  4.196399710314e-01 
  3.771645104629e-01 
  4.318727315595e-01 
  4.339697592310e-01 
  3.871479920047e-01 
  3.403262247784e-01 
  3.968667208773e-01 
  3.500449536510e-01 
  3.597636825236e-01 
  2.955113255992e-01 
  3.011203207880e-01 
  3.067293159768e-01 
  3.294736752000e-01 
  3.350826703888e-01 
  3.634360248008e-01 
  3.037485522840e-01 
  3.326366853291e-01 
  3.615248183743e-01 
  3.204271086199e-01 
  3.493152416650e-01 
  3.371056649558e-01 
 -1.432473087528e-03 
  6.909261205889e-02 
  1.396176972053e-01 
  2.738387126760e-03 
  7.326347227318e-02 
  6.909247341049e-03 
  1.378214579666e-01 
  1.831767235161e-01 
  2.285319890657e-01 
  1.838886081566e-01 
  2.292438737062e-01 
  2.299557583467e-01 
  2.545558218892e-01 
  1.306811667232e-01 
  6.806511557094e-03 
  1.267783612616e-01 
  2.903706095527e-03 
 -9.990993660393e-04 
 -4.764440619065e-03 
  1.236731050731e-02 
  2.949906163368e-02 
  3.886694683461e-02 
  5.599869796098e-02 
  8.249833428828e-02 
  1.529090706328e-03 
 -2.109575390963e-03 
 -5.748241488255e-03 
  6.638915050578e-02 
  6.275048440849e-02 
  1.312492103052e-01 
  2.065854320793e-01 
  1.038515817624e-01 
  1.117731445492e-03 
  1.734208480113e-01 
  7.068699769440e-02 
  1.402562639433e-01 
  1.387196710192e-01 
  1.868362311153e-01 
  2.349527912114e-01 
  7.402178832190e-02 
  1.221383484180e-01 
  9.323905624622e-03 
 -7.468453206242e-03 
  3.725877487007e-02 
  8.198600294638e-02 
  6.177104144844e-02 
  1.064982695247e-01 
  1.310105361031e-01 
  2.569835286602e-03 
  2.910276819547e-03 
  3.250718352493e-03 
  1.699511153902e-01 
  1.702915569231e-01 
  3.373323954938e-01 
  4.882637185722e-03 
  1.674340565499e-01 
  3.299854759141e-01 
  3.472978600618e-03 
  1.660243979648e-01 
  2.063320015515e-03 
  3.115746617598e-01 
  1.592603139503e-01 
  6.945966140891e-03 
  2.895982098389e-01 
  1.372838620294e-01 
  2.676217579180e-01 
  2.068555410576e-03 
  1.230805939978e-01 
  2.440926325849e-01 
  5.117962352749e-03 
  1.261300009399e-01 
  8.167369294922e-03 
  7.518117827450e-03 
  1.556984994853e-01 
  3.038788811432e-01 
  1.709495014052e-01 
  3.191298830631e-01 
  3.343808849830e-01 
  2.966999703490e-01 
  1.525682998871e-01 
  8.436629425193e-03 
  3.018705801128e-01 
  1.577389096509e-01 
  3.070411898766e-01 
  1.888771851985e-01 
  9.476731095760e-02 
  6.574367167303e-04 
  9.623840761785e-02 
  2.128533376975e-03 
  3.599630037219e-03 
  1.285486719295e-02 
  1.267728853214e-01 
  2.406909034498e-01 
  1.578846884758e-01 
  2.718027066042e-01 
  3.029145097587e-01 
  2.342437952631e-01 
  2.659507228155e-01 
  2.976576503680e-01 
  2.692497240414e-01 
  3.009566515938e-01 
  3.042556528196e-01 
  2.550746450863e-01 
  1.315778242848e-01 
  8.081003483376e-03 
  2.731489876443e-01 
  1.496521668428e-01 
  2.912233302022e-01 
  4.320213230707e-01 
  3.955361585615e-01 
  3.590509940523e-01 
  3.993628377692e-01 
  3.628776732600e-01 
  3.667043524677e-01 
  2.309443439024e-01 
  2.294560024652e-01 
  2.279676610280e-01 
  2.644170483734e-01 
  2.629287069362e-01 
  2.978897528443e-01 
  1.273539100660e-03 
  3.622126696548e-03 
  5.970714292435e-03 
  1.299365854119e-01 
  1.322851730078e-01 
  2.585996317231e-01 
  2.614400802758e-02 
  1.198913579211e-02 
 -2.165736443360e-03 
  1.179159122402e-02 
 -2.363281011451e-03 
 -2.560825579543e-03 
  3.114288155618e-01 
  3.168971578004e-01 
  3.223655000390e-01 
  2.911713432913e-01 
  2.966396855299e-01 
  2.709138710207e-01 
  3.241776591338e-01 
  3.330490565486e-01 
  3.419204539635e-01 
  3.340116253201e-01 
  3.428830227349e-01 
  3.438455915063e-01 
  3.404464412908e-01 
  3.245181507050e-01 
  3.085898601191e-01 
  3.240516266773e-01 
  3.081233360914e-01 
  3.076568120638e-01 
  3.083361600492e-01 
  3.241448066298e-01 
  3.399534532105e-01 
  3.149692524010e-01 
  3.307778989816e-01 
  3.216023447528e-01 
  3.069982077805e-01 
  3.086826398093e-01 
  3.103670718380e-01 
  2.732872047758e-01 
  2.749716368045e-01 
  2.395762017710e-01 
  1.151105808406e-02 
 -3.396161198531e-03 
 -1.830338048112e-02 
  1.309941198465e-01 
  1.160869005639e-01 
  2.504771816089e-01 
  3.239663112868e-01 
  2.852639105344e-01 
  2.465615097820e-01 
  2.958719015717e-01 
  2.571695008193e-01 
  2.677774918566e-01 
  3.231576481086e-01 
  3.217081592917e-01 
  3.202586704747e-01 
  2.857822882796e-01 
  2.843327994626e-01 
  2.484069284505e-01 
  1.742203293575e-01 
  2.206033232259e-01 
  2.669863170944e-01 
  2.092540230439e-01 
  2.556370169123e-01 
  2.442877167303e-01 
  2.432847436636e-01 
  2.095928851526e-01 
  1.759010266416e-01 
  1.953872077079e-01 
  1.616953491969e-01 
  1.474896717522e-01 
  2.658375054025e-01 
  2.526138310856e-01 
  2.393901567687e-01 
  2.701711713090e-01 
  2.569474969921e-01 
  2.745048372154e-01 
  2.390647185096e-01 
  2.519769185648e-01 
  2.648891186201e-01 
  2.071906837491e-01 
  2.201028838043e-01 
  1.753166489886e-01 
  2.959708768729e-01 
  2.843892801791e-01 
  2.728076834854e-01 
  3.020984037277e-01 
  2.905168070340e-01 
  3.082259305826e-01 
  2.692773465385e-01 
  2.707771788525e-01 
  2.722770111665e-01 
  2.906417852548e-01 
  2.921416175688e-01 
  3.120062239710e-01 
  1.766073506838e-01 
  1.659846931570e-01 
  1.553620356302e-01 
  1.304674250988e-01 
  1.198447675720e-01 
  8.432749951375e-02 
  1.744462133925e-01 
  2.090263067361e-01 
  2.436064000797e-01 
  1.651140930549e-01 
  1.996941863986e-01 
  1.557819727174e-01 
  2.425630260373e-01 
  2.093610460053e-01 
  1.761590659733e-01 
  1.995183056218e-01 
  1.663163255898e-01 
  1.564735852063e-01 
  3.114665954494e-01 
  2.926193183586e-01 
  2.737720412678e-01 
  2.972440411865e-01 
  2.783967640957e-01 
  2.830214869236e-01 
  2.381502227131e-01 
  2.329890749463e-01 
  2.278279271796e-01 
  1.869315579624e-01 
  1.817704101957e-01 
  1.357128932118e-01 
  2.387574439932e-01 
  2.752109399610e-01 
  3.116644359288e-01 
  2.347157415123e-01 
  2.711692374801e-01 
  2.306740390313e-01 
  1.349308312368e-01 
  1.396142468002e-01 
  1.442976623636e-01 
  6.773858017030e-02 
  7.242199573369e-02 
  5.463291037878e-04 
  1.455662195548e-01 
  1.402207662502e-01 
  1.348753129455e-01 
  1.873530977539e-01 
  1.820076444493e-01 
  2.291399759530e-01 
  2.187052982953e-01 
  1.130697504045e-01 
  7.434202513712e-03 
  1.088174069271e-01 
  3.181859036318e-03 
 -1.070484441076e-03 
  2.108375725474e-02 
  1.213924252904e-02 
  3.194727803335e-03 
  1.602445808597e-01 
  1.513000661340e-01 
  2.994054044647e-01 
  2.311240414851e-01 
  2.264002055600e-01 
  2.216763696349e-01 
  1.880865446730e-01 
  1.833627087479e-01 
  1.450490478609e-01 
  2.682165622955e-01 
  1.327532819830e-01 
 -2.709998329508e-03 
  1.451953954604e-01 
  9.732115147851e-03 
  2.217422862521e-02 
  2.794184757703e-01 
  2.864153029051e-01 
  2.934121300399e-01 
  2.676272195274e-01 
  2.746240466622e-01 
  2.558359632846e-01 
  2.925196902816e-01 
  2.868734338360e-01 
  2.812271773904e-01 
  2.834613743781e-01 
  2.778151179325e-01 
  2.744030584746e-01 
  2.166514131233e-01 
  2.376920504294e-01 
  2.587326877355e-01 
  2.130161804346e-01 
  2.340568177407e-01 
  2.093809477459e-01 
  2.544035749126e-01 
  2.368290467755e-01 
  2.192545186384e-01 
  2.671725449263e-01 
  2.495980167892e-01 
  2.799415149399e-01 
  2.134760861014e-01 
  2.370478518657e-01 
  2.606196176300e-01 
  2.448649473452e-01 
  2.684367131095e-01 
  2.762538085891e-01 
  2.201903892214e-01 
  2.123258436926e-01 
  2.044612981639e-01 
  1.814484621926e-01 
  1.735839166639e-01 
  1.427065351639e-01 
  2.929242732778e-01 
  3.038256265924e-01 
  3.147269799069e-01 
  2.751445729997e-01 
  2.860459263143e-01 
  2.573648727216e-01 
  2.820940300436e-01 
  2.514280929990e-01 
  2.207621559545e-01 
  2.573283367168e-01 
  2.266623996723e-01 
  2.325626433901e-01 
  3.110764201163e-01 
  2.967937958179e-01 
  2.825111715194e-01 
  2.715038521923e-01 
  2.572212278939e-01 
  2.319312842683e-01 
  2.183390438700e-01 
  2.450480348905e-01 
  2.717570259110e-01 
  1.141001184991e-01 
  1.408091095197e-01 
  9.861193128329e-03 
  2.721649457349e-01 
  2.565631590595e-01 
  2.409613723841e-01 
  2.896977369344e-01 
  2.740959502590e-01 
  3.072305281339e-01 
  5.610664021052e-02 
  1.603476067754e-01 
  2.645885733402e-01 
  1.256090082258e-01 
  2.298499747906e-01 
  1.951113762411e-01 
  2.833554568362e-02 
  1.310106581000e-02 
 -2.133414063611e-03 
  5.612166020918e-02 
  4.088718033556e-02 
  8.390777473474e-02 
  2.581349303643e-02 
  1.142985581528e-02 
 -2.953781405863e-03 
  1.235666676755e-02 
 -2.026970453597e-03 
 -1.100159501331e-03 
  8.504800178187e-02 
  4.294824420907e-02 
  8.484866362706e-04 
  1.137941806417e-01 
  7.169442306886e-02 
  1.425403595015e-01 
  2.149430260682e-01 
  1.790011205021e-01 
  1.430592149361e-01 
  1.064570431624e-01 
  7.051513759634e-02 
 -2.028939743444e-03 
  2.208114783619e-01 
  2.657073699819e-01 
  3.106032616019e-01 
  2.324840583212e-01 
  2.773799499412e-01 
  2.441566382805e-01 
  2.180202325601e-01 
  2.321189489579e-01 
  2.462176653556e-01 
  1.816732566292e-01 
  1.957719730270e-01 
  1.453262806983e-01 
  1.365888242912e-03 
  4.311194899327e-02 
  8.485800974362e-02 
 -2.194543887468e-05 
  4.172411531148e-02 
 -1.409779120661e-03 
  1.775056139690e-01 
  1.310240626092e-01 
  8.454251124942e-02 
  1.613448669327e-01 
  1.148633155729e-01 
  1.451841198964e-01 
 -1.134830185814e-03 
  1.236417200852e-03 
  3.607664587518e-03 
  1.074407218197e-01 
  1.098119692064e-01 
  2.160162738253e-01 
  3.104125220289e-01 
  1.589505138705e-01 
  7.488505712055e-03 
  3.002875160904e-01 
  1.488255079320e-01 
  2.901625101519e-01 
  2.364337314717e-01 
  1.711022495012e-01 
  1.057707675306e-01 
  2.794351440319e-01 
  2.141036620614e-01 
  3.224365565921e-01 
  1.364385913882e-01 
  6.944615914312e-02 
  2.453726898038e-03 
  1.270455139214e-01 
  6.005308167635e-02 
  1.176524364547e-01 
  3.137714779205e-01 
  1.578591727343e-01 
  1.946867548132e-03 
  1.605022129397e-01 
  4.589907753568e-03 
  7.232947959005e-03 
  3.056445302199e-01 
  1.522642956710e-01 
 -1.115938877778e-03 
  1.557265819124e-01 
  2.346347363559e-03 
  5.808633604896e-03 
  2.527850840712e-01 
  1.289161094956e-01 
  5.047134920116e-03 
  2.356862393998e-01 
  1.118172648243e-01 
  2.185873947285e-01 
  2.144217624144e-01 
  1.077613079337e-01 
  1.100853452996e-03 
  2.568503159502e-01 
  1.501898614695e-01 
  2.992788694860e-01 
  2.747720471086e-01 
  2.695929145455e-01 
  2.644137819824e-01 
  2.765532279703e-01 
  2.713740954072e-01 
  2.783344088321e-01 
  3.435730268905e-01 
  1.734762777344e-01 
  3.379528578335e-03 
  1.731050658192e-01 
  3.008316663111e-03 
  2.637104747887e-03 
  3.091732798698e-01 
  3.052764699237e-01 
  3.013796599776e-01 
  3.365965519668e-01 
  3.326997420207e-01 
  3.640198240637e-01 
  2.981109497807e-01 
  3.049269569095e-01 
  3.117429640384e-01 
  2.579023362922e-01 
  2.647183434211e-01 
  2.176937228037e-01 
  3.321716912381e-01 
  3.020474468389e-01 
  2.719232024397e-01 
  3.228273623558e-01 
  2.927031179566e-01 
  3.134830334735e-01 
  2.747654439473e-01 
  2.675566959905e-01 
  2.603479480337e-01 
  2.939129910574e-01 
  2.867042431005e-01 
  3.130605381674e-01 
  3.174649502638e-01 
  3.056066340312e-01 
  2.937483177986e-01 
  3.403263099092e-01 
  3.284679936766e-01 
  3.631876695546e-01 
  3.635647040361e-01 
  3.878099916082e-01 
  4.120552791803e-01 
  3.400892365744e-01 
  3.643345241465e-01 
  3.166137691128e-01 
  3.638958819947e-01 
  3.341859260798e-01 
  3.044759701649e-01 
  3.518256136906e-01 
  3.221156577758e-01 
  3.397553453866e-01 
  3.085296926614e-01 
  3.351094128464e-01 
  3.616891330314e-01 
  3.015118625942e-01 
  3.280915827792e-01 
  2.944940325271e-01 
  3.386248880700e-01 
  3.345814027561e-01 
  3.305379174422e-01 
  3.777181393586e-01 
  3.736746540446e-01 
  4.168113906471e-01 
  3.400725513621e-01 
  3.252832335161e-01 
  3.104939156700e-01 
  1.756828435165e-01 
  1.608935256704e-01 
  1.129313567081e-02 
  3.403041852279e-01 
  3.772414810612e-01 
  4.141787768945e-01 
  3.859910337917e-01 
  4.229283296250e-01 
  4.316778823556e-01 
  4.137318223550e-01 
  3.757926836499e-01 
  3.378535449448e-01 
  3.641789965344e-01 
  3.262398578293e-01 
  3.146261707138e-01 
  3.108181237258e-01 
  3.232086651954e-01 
  3.355992066649e-01 
  3.386497083127e-01 
  3.510402497822e-01 
  3.664812928995e-01 
  3.342645266597e-01 
  3.221146483599e-01 
  3.099647700600e-01 
  3.018672634064e-01 
  2.897173851066e-01 
  2.694700001531e-01 
  4.267547458126e-01 
  4.217936321038e-01 
  4.168325183950e-01 
  3.782492455923e-01 
  3.732881318835e-01 
  3.297437453720e-01 
  3.396639707551e-01 
  3.760891464740e-01 
  4.125143221929e-01 
  3.512815794855e-01 
  3.877067552043e-01 
  3.628991882158e-01 
  7.447458886431e-03 
  1.684089604634e-01 
  3.293704620404e-01 
  1.740982915753e-01 
  3.350597931523e-01 
  3.407491242641e-01 