# vtk DataFile Version 2
NuDG++ 2D simulation
ASCII
DATASET UNSTRUCTURED_GRID

POINTS 2244 double
 -1.656250060000e-01  -2.000000030000e-01  0.0
 -1.828125045000e-01  -1.772221997500e-01  0.0
 -2.000000030000e-01  -1.544443965000e-01  0.0
 -1.828125045000e-01  -2.000000030000e-01  0.0
 -2.000000030000e-01  -1.772221997500e-01  0.0
 -2.000000030000e-01  -2.000000030000e-01  0.0
 -6.428571790000e-02  -1.700000018000e-01  0.0
 -8.058035746000e-02  -1.850000024000e-01  0.0
 -9.687499702000e-02  -2.000000030000e-01  0.0
 -6.339285895000e-02  -1.850000024000e-01  0.0
 -7.968749851000e-02  -2.000000030000e-01  0.0
 -6.250000000000e-02  -2.000000030000e-01  0.0
 -2.000000030000e-01  -1.544443965000e-01  0.0
 -1.750000045000e-01  -1.379364989500e-01  0.0
 -1.500000060000e-01  -1.214286014000e-01  0.0
 -2.000000030000e-01  -1.316666491500e-01  0.0
 -1.750000045000e-01  -1.151587516000e-01  0.0
 -2.000000030000e-01  -1.088889018000e-01  0.0
 -1.500000060000e-01  -1.214286014000e-01  0.0
 -1.750000045000e-01  -1.379364989500e-01  0.0
 -2.000000030000e-01  -1.544443965000e-01  0.0
 -1.500000060000e-01  -1.457143016000e-01  0.0
 -1.750000045000e-01  -1.622221991500e-01  0.0
 -1.500000060000e-01  -1.700000018000e-01  0.0
 -1.500000060000e-01  -7.285714149000e-02  0.0
 -1.750000045000e-01  -9.087302164500e-02  0.0
 -2.000000030000e-01  -1.088889018000e-01  0.0
 -1.500000060000e-01  -9.714287144500e-02  0.0
 -1.750000045000e-01  -1.151587516000e-01  0.0
 -1.500000060000e-01  -1.214286014000e-01  0.0
  1.832975030000e+00  -4.625000060000e-02  0.0
  1.853987515000e+00  -1.231250018000e-01  0.0
  1.875000000000e+00  -2.000000030000e-01  0.0
  1.916487515000e+00  -7.187499851000e-02  0.0
  1.937500000000e+00  -1.487499997100e-01  0.0
  2.000000000000e+00  -9.749999642000e-02  0.0
 -1.500000060000e-01  -1.700000018000e-01  0.0
 -1.360000037000e-01  -1.525000036000e-01  0.0
 -1.220000014000e-01  -1.350000054000e-01  0.0
 -1.500000060000e-01  -1.457143016000e-01  0.0
 -1.360000037000e-01  -1.282143034000e-01  0.0
 -1.500000060000e-01  -1.214286014000e-01  0.0
  2.849999964000e-01  -2.333333530000e-02  0.0
  2.837499976000e-01  -8.166666795000e-02  0.0
  2.824999988000e-01  -1.400000006000e-01  0.0
  3.174999952000e-01  -4.666666780000e-02  0.0
  3.162499964000e-01  -1.050000004500e-01  0.0
  3.499999940000e-01  -7.000000030000e-02  0.0
 -1.071429029000e-01  -1.700000018000e-01  0.0
 -8.571431040000e-02  -1.700000018000e-01  0.0
 -6.428571790000e-02  -1.700000018000e-01  0.0
 -9.857145324000e-02  -1.525000036000e-01  0.0
 -7.714286074000e-02  -1.525000036000e-01  0.0
 -9.000000358000e-02  -1.350000054000e-01  0.0
 -1.312499940000e-01  -2.000000030000e-01  0.0
 -1.191964484500e-01  -1.850000024000e-01  0.0
 -1.071429029000e-01  -1.700000018000e-01  0.0
 -1.406250000000e-01  -1.850000024000e-01  0.0
 -1.285714544500e-01  -1.700000018000e-01  0.0
 -1.500000060000e-01  -1.700000018000e-01  0.0
 -1.220000014000e-01  -1.350000054000e-01  0.0
 -1.060000024900e-01  -1.350000054000e-01  0.0
 -9.000000358000e-02  -1.350000054000e-01  0.0
 -1.185000017500e-01  -1.175000034500e-01  0.0
 -1.025000028400e-01  -1.175000034500e-01  0.0
 -1.150000021000e-01  -1.000000015000e-01  0.0
 -9.000000358000e-02  -1.350000054000e-01  0.0
 -1.060000024900e-01  -1.350000054000e-01  0.0
 -1.220000014000e-01  -1.350000054000e-01  0.0
 -9.857145324000e-02  -1.525000036000e-01  0.0
 -1.145714521500e-01  -1.525000036000e-01  0.0
 -1.071429029000e-01  -1.700000018000e-01  0.0
 -7.778175920000e-02  -9.192386270000e-02  0.0
 -9.639088065000e-02  -9.596193210000e-02  0.0
 -1.150000021000e-01  -1.000000015000e-01  0.0
 -8.389088139000e-02  -1.134619340500e-01  0.0
 -1.025000028400e-01  -1.175000034500e-01  0.0
 -9.000000358000e-02  -1.350000054000e-01  0.0
 -1.220000014000e-01  -1.350000054000e-01  0.0
 -1.185000017500e-01  -1.175000034500e-01  0.0
 -1.150000021000e-01  -1.000000015000e-01  0.0
 -1.360000037000e-01  -1.282143034000e-01  0.0
 -1.325000040500e-01  -1.107143014500e-01  0.0
 -1.500000060000e-01  -1.214286014000e-01  0.0
 -7.778175920000e-02  -9.192386270000e-02  0.0
 -8.389088139000e-02  -1.134619340500e-01  0.0
 -9.000000358000e-02  -1.350000054000e-01  0.0
 -6.639088876500e-02  -1.022535823500e-01  0.0
 -7.250001095500e-02  -1.237916537000e-01  0.0
 -5.500001833000e-02  -1.125833020000e-01  0.0
 -1.071429029000e-01  -1.700000018000e-01  0.0
 -1.145714521500e-01  -1.525000036000e-01  0.0
 -1.220000014000e-01  -1.350000054000e-01  0.0
 -1.285714544500e-01  -1.700000018000e-01  0.0
 -1.360000037000e-01  -1.525000036000e-01  0.0
 -1.500000060000e-01  -1.700000018000e-01  0.0
  6.250000093000e-03  -2.000000030000e-01  0.0
  4.062500153650e-02  -2.000000030000e-01  0.0
  7.500000298000e-02  -2.000000030000e-01  0.0
  1.383928512150e-02  -1.850000024000e-01  0.0
  4.821428656500e-02  -1.850000024000e-01  0.0
  2.142857015000e-02  -1.700000018000e-01  0.0
 -1.500000060000e-01  -7.285714149000e-02  0.0
 -1.500000060000e-01  -9.714287144500e-02  0.0
 -1.500000060000e-01  -1.214286014000e-01  0.0
 -1.325000040500e-01  -8.642857149500e-02  0.0
 -1.325000040500e-01  -1.107143014500e-01  0.0
 -1.150000021000e-01  -1.000000015000e-01  0.0
 -2.000000030000e-01  -6.333333254000e-02  0.0
 -1.750000045000e-01  -6.809523701500e-02  0.0
 -1.500000060000e-01  -7.285714149000e-02  0.0
 -1.750000045000e-01  -4.380952660000e-02  0.0
 -1.500000060000e-01  -4.857143107500e-02  0.0
 -1.500000060000e-01  -2.428572066000e-02  0.0
 -2.000000030000e-01  -6.333333254000e-02  0.0
 -2.000000030000e-01  -8.611111717000e-02  0.0
 -2.000000030000e-01  -1.088889018000e-01  0.0
 -1.750000045000e-01  -6.809523701500e-02  0.0
 -1.750000045000e-01  -9.087302164500e-02  0.0
 -1.500000060000e-01  -7.285714149000e-02  0.0
 -2.000000030000e-01  -6.333333254000e-02  0.0
 -1.750000045000e-01  -4.380952660000e-02  0.0
 -1.500000060000e-01  -2.428572066000e-02  0.0
 -2.000000030000e-01  -4.055555630500e-02  0.0
 -1.750000045000e-01  -2.103175036500e-02  0.0
 -2.000000030000e-01  -1.777778007000e-02  0.0
 -1.500000060000e-01  -2.428572066000e-02  0.0
 -1.500000060000e-01  -4.857143107500e-02  0.0
 -1.500000060000e-01  -7.285714149000e-02  0.0
 -1.281259023000e-01  -2.896608505500e-02  0.0
 -1.281259023000e-01  -5.325179547000e-02  0.0
 -1.062517986000e-01  -3.364644945000e-02  0.0
 -1.099999994000e-01   1.996667010000e-08  0.0
 -1.300000027000e-01  -1.214285034666e-02  0.0
 -1.500000060000e-01  -2.428572066000e-02  0.0
 -1.081258990000e-01  -1.682321474166e-02  0.0
 -1.281259023000e-01  -2.896608505500e-02  0.0
 -1.062517986000e-01  -3.364644945000e-02  0.0
 -1.500000060000e-01  -2.428572066000e-02  0.0
 -1.500000060000e-01   0.000000000000e+00  0.0
 -1.500000060000e-01   2.428572066000e-02  0.0
 -1.750000045000e-01  -2.103175036500e-02  0.0
 -1.750000045000e-01   3.253970295000e-03  0.0
 -2.000000030000e-01  -1.777778007000e-02  0.0
 -1.500000060000e-01  -7.285714149000e-02  0.0
 -1.226314045700e-01  -6.892856210000e-02  0.0
 -9.526280314000e-02  -6.499998271000e-02  0.0
 -1.281259023000e-01  -5.325179547000e-02  0.0
 -1.007573008700e-01  -4.932321608000e-02  0.0
 -1.062517986000e-01  -3.364644945000e-02  0.0
  3.499999940000e-01   1.400000006000e-01  0.0
  4.021931737500e-01   1.224999986500e-01  0.0
  4.543863535000e-01   1.049999967000e-01  0.0
  4.187500029500e-01   1.749999970000e-01  0.0
  4.709431827000e-01   1.574999950500e-01  0.0
  4.875000119000e-01   2.099999934000e-01  0.0
 -7.101409137000e-02  -4.349999130000e-02  0.0
 -8.313844725500e-02  -5.424998700500e-02  0.0
 -9.526280314000e-02  -6.499998271000e-02  0.0
 -6.449843011500e-02  -5.250913650000e-02  0.0
 -7.662278600000e-02  -6.325913220500e-02  0.0
 -5.798276886000e-02  -6.151828170000e-02  0.0
 -9.526280314000e-02  -6.499998271000e-02  0.0
 -1.226314045700e-01  -6.892856210000e-02  0.0
 -1.500000060000e-01  -7.285714149000e-02  0.0
 -1.051314026200e-01  -8.249999210500e-02  0.0
 -1.325000040500e-01  -8.642857149500e-02  0.0
 -1.150000021000e-01  -1.000000015000e-01  0.0
 -6.181925908000e-02  -1.656441018000e-02  0.0
 -7.051259093000e-02  -1.954082492500e-02  0.0
 -7.920592278000e-02  -2.251723967000e-02  0.0
 -5.862244405000e-02  -2.428220026000e-02  0.0
 -6.731577590000e-02  -2.725861500500e-02  0.0
 -5.542562902000e-02  -3.199999034000e-02  0.0
 -7.920592278000e-02  -2.251723967000e-02  0.0
 -9.272886069000e-02  -2.808184456000e-02  0.0
 -1.062517986000e-01  -3.364644945000e-02  0.0
 -7.511000707500e-02  -3.300861548500e-02  0.0
 -8.863294498500e-02  -3.857322037500e-02  0.0
 -7.101409137000e-02  -4.349999130000e-02  0.0
 -7.101409137000e-02  -4.349999130000e-02  0.0
 -6.321986019500e-02  -3.774999082000e-02  0.0
 -5.542562902000e-02  -3.199999034000e-02  0.0
 -7.511000707500e-02  -3.300861548500e-02  0.0
 -6.731577590000e-02  -2.725861500500e-02  0.0
 -7.920592278000e-02  -2.251723967000e-02  0.0
 -7.920592278000e-02  -2.251723967000e-02  0.0
 -9.460296109000e-02  -1.125860985166e-02  0.0
 -1.099999994000e-01   1.996667010000e-08  0.0
 -9.272886069000e-02  -2.808184456000e-02  0.0
 -1.081258990000e-01  -1.682321474166e-02  0.0
 -1.062517986000e-01  -3.364644945000e-02  0.0
 -7.778175920000e-02  -9.192386270000e-02  0.0
 -6.788226403000e-02  -7.672107220000e-02  0.0
 -5.798276886000e-02  -6.151828170000e-02  0.0
 -8.652228117000e-02  -7.846192270500e-02  0.0
 -7.662278600000e-02  -6.325913220500e-02  0.0
 -9.526280314000e-02  -6.499998271000e-02  0.0
 -7.101409137000e-02  -4.349999130000e-02  0.0
 -8.863294498500e-02  -3.857322037500e-02  0.0
 -1.062517986000e-01  -3.364644945000e-02  0.0
 -8.313844725500e-02  -5.424998700500e-02  0.0
 -1.007573008700e-01  -4.932321608000e-02  0.0
 -9.526280314000e-02  -6.499998271000e-02  0.0
 -7.778175920000e-02  -9.192386270000e-02  0.0
 -8.652228117000e-02  -7.846192270500e-02  0.0
 -9.526280314000e-02  -6.499998271000e-02  0.0
 -9.639088065000e-02  -9.596193210000e-02  0.0
 -1.051314026200e-01  -8.249999210500e-02  0.0
 -1.150000021000e-01  -1.000000015000e-01  0.0
[...]
POINT_DATA 2244
SCALARS field1 double 1
LOOKUP_TABLE default
  2.034082389696e-03 
  4.643455927506e-02 
  9.083503616042e-02 
  1.253411530553e-03 
  4.565388841592e-02 
  4.727406714093e-04 
  1.858025583906e-01 
  9.363010698205e-02 
  1.457655573489e-03 
  9.365022252238e-02 
  1.477771113820e-03 
  1.497886654152e-03 
  8.932405933565e-02 
  1.156269485473e-01 
  1.419298377590e-01 
  1.236177790114e-01 
  1.499206682231e-01 
  1.579114986872e-01 
  1.434853862317e-01 
  1.156479445699e-01 
  8.781050290804e-02 
  1.175825680595e-01 
  8.974512639770e-02 
  9.167974988737e-02 
  1.925372597634e-01 
  1.752661351481e-01 
  1.579950105329e-01 
  1.684945358785e-01 
  1.512234112632e-01 
  1.444518119936e-01 
  2.105381856704e-01 
  1.260530685188e-01 
  4.156795136727e-02 
  1.992500834110e-01 
  1.147649662594e-01 
  1.879619811515e-01 
  9.335970462893e-02 
  1.236189335108e-01 
  1.538781623927e-01 
  1.189178476093e-01 
  1.491770764912e-01 
  1.444759905897e-01 
  1.695773768644e-01 
  1.809438878749e-01 
  1.923103988855e-01 
  1.751519182162e-01 
  1.865184292267e-01 
  1.807264595680e-01 
  1.480103826200e-01 
  1.652351612451e-01 
  1.824599398703e-01 
  1.590558299166e-01 
  1.762806085417e-01 
  1.701012772131e-01 
  2.693041720600e-03 
  7.561987023517e-02 
  1.485466987497e-01 
  4.749210305612e-02 
  1.204189315707e-01 
  9.229116439164e-02 
  1.503719415054e-01 
  1.581895490318e-01 
  1.660071565582e-01 
  1.606160245779e-01 
  1.684336321043e-01 
  1.708601076504e-01 
  1.677132992550e-01 
  1.591887907028e-01 
  1.506642821506e-01 
  1.580874470506e-01 
  1.495629384984e-01 
  1.484615948462e-01 
  1.956914711291e-01 
  1.829575070778e-01 
  1.702235430266e-01 
  1.815716210224e-01 
  1.688376569711e-01 
  1.674517709157e-01 
  1.508853419053e-01 
  1.618712802573e-01 
  1.728572186093e-01 
  1.487817807672e-01 
  1.597677191192e-01 
  1.466782196291e-01 
  1.960573185382e-01 
  1.827004879588e-01 
  1.693436573794e-01 
  2.047485653412e-01 
  1.913917347618e-01 
  2.134398121442e-01 
  1.472093169489e-01 
  1.500948392339e-01 
  1.529803615190e-01 
  1.203258718569e-01 
  1.232113941420e-01 
  9.344242676494e-02 
  1.572319177709e-03 
  2.195273175642e-03 
  2.818227173575e-03 
  1.084595956173e-01 
  1.090825496153e-01 
  2.153468720570e-01 
  1.919711810902e-01 
  1.691617093550e-01 
  1.463522376199e-01 
  1.830594268710e-01 
  1.602499551359e-01 
  1.741476726518e-01 
  2.056761782235e-01 
  1.980226708493e-01 
  1.903691634751e-01 
  2.082374595637e-01 
  2.005839521896e-01 
  2.107987409040e-01 
  2.045850844347e-01 
  1.818132590503e-01 
  1.590414336659e-01 
  1.981102849240e-01 
  1.753384595396e-01 
  1.916354854133e-01 
  2.058898950966e-01 
  2.087935513388e-01 
  2.116972075809e-01 
  2.171825330943e-01 
  2.200861893365e-01 
  2.284751710921e-01 
  2.093118071239e-01 
  2.005300074757e-01 
  1.917482078275e-01 
  1.864799540989e-01 
  1.776981544507e-01 
  1.636481010739e-01 
  1.435267296462e-01 
  1.761109950470e-01 
  2.086952604477e-01 
  1.533999546254e-01 
  1.859842200261e-01 
  1.632731796045e-01 
  2.077665075830e-01 
  2.083052033463e-01 
  2.088438991096e-01 
  2.189188656890e-01 
  2.194575614523e-01 
  2.300712237950e-01 
  1.912010997805e-01 
  1.829267372786e-01 
  1.746523747767e-01 
  1.771753640434e-01 
  1.689010015415e-01 
  1.631496283063e-01 
  1.965536210464e-01 
  2.052074345296e-01 
  2.138612480128e-01 
  1.172923934108e-01 
  1.259462068940e-01 
  3.803116577519e-02 
  1.418549025113e-01 
  1.598293130332e-01 
  1.778037235551e-01 
  1.654020109877e-01 
  1.833764215096e-01 
  1.889491194642e-01 
  1.756320256788e-01 
  1.833938168783e-01 
  1.911556080779e-01 
  1.749995971798e-01 
  1.827613883793e-01 
  1.743671686807e-01 
  4.745776793543e-02 
  7.852459240558e-02 
  1.095914168757e-01 
  6.287677410834e-02 
  9.394359857849e-02 
  7.829578028126e-02 
  1.078861027202e-01 
  1.350262281216e-01 
  1.621663535230e-01 
  1.246965164449e-01 
  1.518366418463e-01 
  1.415069301696e-01 
  1.413316018511e-01 
  1.104836036860e-01 
  7.963560552098e-02 
  1.249174373303e-01 
  9.406943916525e-02 
  1.085032728095e-01 
  1.072509779171e-01 
  1.248944907867e-01 
  1.425380036563e-01 
  1.350054866617e-01 
  1.526489995313e-01 
  1.627599954064e-01 
  1.965370213090e-01 
  1.932928175458e-01 
  1.900486137827e-01 
  1.869433884621e-01 
  1.836991846990e-01 
  1.773497556152e-01 
  1.425233571422e-01 
  1.522228113870e-01 
  1.619222656317e-01 
  1.599971183922e-01 
  1.696965726369e-01 
  1.774708796421e-01 
  1.946222431667e-01 
  1.857584636611e-01 
  1.768946841555e-01 
  1.834150574768e-01 
  1.745512779712e-01 
  1.722078717869e-01 
  1.087460117023e-01 
  7.819406837165e-02 
  4.764212504101e-02 
  9.837366092949e-02 
  6.782171759885e-02 
  8.800131015669e-02 
  2.113806177723e-01 
  1.911047927569e-01 
  1.708289677415e-01 
  1.969835260221e-01 
  1.767077010067e-01 
  1.825864342719e-01 
  1.899026023703e-01 
  1.939696073143e-01 
  1.980366122583e-01 
  1.748329385992e-01 
  1.788999435432e-01 
  1.597632748280e-01 
  2.208610403873e-01 
  2.138137994935e-01 
  2.067665585998e-01 
  2.275418416284e-01 
  2.204946007347e-01 
  2.342226428696e-01 
  2.183521738531e-01 
  2.139848733785e-01 
  2.096175729040e-01 
  2.006126532136e-01 
  1.962453527390e-01 
  1.828731325741e-01 
  1.957410382841e-01 
  2.128294264114e-01 
  2.299178145386e-01 
  1.927563346911e-01 
  2.098447228183e-01 
  1.897716310981e-01 
  2.307039234556e-01 
  2.132162768065e-01 
  1.957286301574e-01 
  2.216217022748e-01 
  2.041340556257e-01 
  2.125394810941e-01 
  2.658917911276e-01 
  2.493289177357e-01 
  2.327660443438e-01 
  2.379745205163e-01 
  2.214116471244e-01 
  2.100572499050e-01 
  1.916419765138e-01 
  1.903156723335e-01 
  1.889893681532e-01 
  2.123825558109e-01 
  2.110562516305e-01 
  2.331231351079e-01 
  2.086603543064e-01 
  2.141391061756e-01 
  2.196178580448e-01 
  2.375133304871e-01 
  2.429920823563e-01 
  2.663663066679e-01 
  2.200482087263e-01 
  2.015849517266e-01 
  1.831216947270e-01 
  2.130759834077e-01 
  1.946127264081e-01 
  2.061037580892e-01 
  2.816006660079e-01 
  2.747538421483e-01 
  2.679070182887e-01 
  2.511898719935e-01 
  2.443430481339e-01 
  2.207790779791e-01 
  1.243323591517e-03 
  1.133540505529e-01 
  2.254647775143e-01 
  8.678261656586e-04 
  1.129785531271e-01 
  4.923287398001e-04 
  2.713892709961e-01 
  2.485187623474e-01 
  2.256482536988e-01 
  2.448531859953e-01 
  2.219826773466e-01 
  2.183171009945e-01 
  2.264387006648e-01 
  2.486463212665e-01 
  2.708539418683e-01 
  2.533782184322e-01 
  2.755858390340e-01 
  2.803177361997e-01 
  2.174379200179e-01 
  2.215014332999e-01 
  2.255649465820e-01 
  1.105810703299e-01 
  1.146445836119e-01 
  3.724220641936e-03 
  2.683927542753e-01 
  2.446892627268e-01 
  2.209857711782e-01 
  2.514752680994e-01 
  2.277717765508e-01 
  2.345577819235e-01 
  2.677080846594e-01 
  2.461181235634e-01 
  2.245281624675e-01 
  2.737276797371e-01 
  2.521377186412e-01 
  2.797472748149e-01 
  2.800340629259e-01 
  2.508528591598e-01 
  2.216716553938e-01 
  2.556721424888e-01 
  2.264909387227e-01 
  2.313102220516e-01 
  2.065785568779e-01 
  2.077080307266e-01 
  2.088375045752e-01 
  2.203511728602e-01 
  2.214806467089e-01 
  2.341237888425e-01 
  1.906759503708e-01 
  2.132042890602e-01 
  2.357326277495e-01 
  2.053200823976e-01 
  2.278484210870e-01 
  2.199642144244e-01 
 -1.122243723806e-03 
  4.019121740829e-02 
  8.150467854039e-02 
  1.510716639002e-03 
  4.282417777110e-02 
  4.143677001809e-03 
  8.057085870689e-02 
  1.102884889858e-01 
  1.400061192648e-01 
  1.111665572239e-01 
  1.408841875028e-01 
  1.417622557408e-01 
  1.783515604372e-01 
  9.235764651789e-02 
  6.363732598583e-03 
  8.862212135674e-02 
  2.628207437437e-03 
 -1.107317723709e-03 
 -2.319238378638e-03 
  6.908187924544e-03 
  1.613561422773e-02 
  2.219798246886e-02 
  3.142540877205e-02 
  4.671520331637e-02 
  5.183895690885e-04 
 -1.423699614618e-03 
 -3.365788798324e-03 
  3.839059774715e-02 
  3.644850856344e-02 
  7.626280592521e-02 
  1.621604162434e-01 
  8.225194089629e-02 
  2.343465549141e-03 
  1.329713654832e-01 
  5.306289013601e-02 
  1.037823147229e-01 
  8.115581757956e-02 
  1.127788479058e-01 
  1.444018782320e-01 
  4.331236141081e-02 
  7.493539173703e-02 
  5.468905242056e-03 
 -4.128103206994e-03 
  2.132363518031e-02 
  4.677537356762e-02 
  3.605899230806e-02 
  6.151073069536e-02 
  7.624608782311e-02 
  1.679494571895e-03 
  1.794145262806e-03 
  1.908795953717e-03 
  1.107111360517e-01 
  1.108257867426e-01 
  2.197427775316e-01 
  2.468194144438e-03 
  1.151869023409e-01 
  2.279056105373e-01 
  2.229631005689e-03 
  1.149483392021e-01 
  1.991067866941e-03 
  2.175395473160e-01 
  1.128443176744e-01 
  8.149088032738e-03 
  2.046254290633e-01 
  9.993019942164e-02 
  1.917113108105e-01 
  1.088751803806e-03 
  7.525204290909e-02 
  1.494153340144e-01 
  2.813332456608e-03 
  7.697662356189e-02 
  4.537913109409e-03 
  4.335890496319e-03 
  9.757189769087e-02 
  1.908079048854e-01 
  1.112448962974e-01 
  2.044809034919e-01 
  2.181539020984e-01 
  2.074282263723e-01 
  1.073135598625e-01 
  7.198893352743e-03 
  2.085948541638e-01 
  1.084801876540e-01 
  2.097614819553e-01 
  1.516841160873e-01 
  7.639273435374e-02 
  1.101352620146e-03 
  7.729000362173e-02 
  1.998621888144e-03 
  2.895891156142e-03 
  7.313067287059e-03 
  7.735081935298e-02 
  1.473885714189e-01 
  9.858431430566e-02 
  1.686220663716e-01 
  1.898555613243e-01 
  1.440630289336e-01 
  1.669180816920e-01 
  1.897731344504e-01 
  1.673778032598e-01 
  1.902328560182e-01 
  1.906925775861e-01 
  1.863116151166e-01 
  9.658550494172e-02 
  6.859394766860e-03 
  1.953399308954e-01 
  1.056138207205e-01 
  2.043682466741e-01 
  2.786686588320e-01 
  2.549044292706e-01 
  2.311401997091e-01 
  2.543984528657e-01 
  2.306342233043e-01 
  2.301282468994e-01 
  1.422380232019e-01 
  1.409667060297e-01 
  1.396953888576e-01 
  1.660822944585e-01 
  1.648109772863e-01 
  1.899265657151e-01 
  1.022320241916e-03 
  2.683768986373e-03 
  4.345217730830e-03 
  9.524958126802e-02 
  9.691103001248e-02 
  1.894768422941e-01 
  1.435996421493e-02 
  6.661872542629e-03 
 -1.036219129674e-03 
  6.424538318941e-03 
 -1.273553353362e-03 
 -1.510887577049e-03 
  2.044230472970e-01 
  2.059280847506e-01 
  2.074331222041e-01 
  1.840156662311e-01 
  1.855207036847e-01 
  1.636082851653e-01 
  2.107649131869e-01 
  2.192807997485e-01 
  2.277966863101e-01 
  2.201565474500e-01 
  2.286724340116e-01 
  2.295481817131e-01 
  2.266588926617e-01 
  2.156514805977e-01 
  2.046440685338e-01 
  2.159467700773e-01 
  2.049393580134e-01 
  2.052346474930e-01 
  2.033955286370e-01 
  2.151320778275e-01 
  2.268686270181e-01 
  2.056117399809e-01 
  2.173482891714e-01 
  2.078279513247e-01 
  2.048739660203e-01 
  2.054298075405e-01 
  2.059856490606e-01 
  1.820915997812e-01 
  1.826474413013e-01 
  1.593092335420e-01 
  2.137382973730e-02 
  8.871159629966e-03 
 -3.631510477364e-03 
  1.095856183776e-01 
  9.708294827026e-02 
  1.977974070179e-01 
  2.078971010409e-01 
  1.760074806700e-01 
  1.441178602990e-01 
  1.854168952202e-01 
  1.535272748492e-01 
  1.629366893994e-01 
  2.074175504283e-01 
  2.074160152374e-01 
  2.074144800466e-01 
  1.756579774237e-01 
  1.756564422329e-01 
  1.438984044192e-01 
  1.054128166779e-01 
  1.337508296697e-01 
  1.620888426616e-01 
  1.243924935347e-01 
  1.527305065266e-01 
  1.433721703915e-01 
  1.501168849889e-01 
  1.278764689913e-01 
  1.056360529937e-01 
  1.188964141448e-01 
  9.665599814720e-02 
  8.767594330066e-02 
  1.606366697949e-01 
  1.543104453232e-01 
  1.479842208515e-01 
  1.668266071898e-01 
  1.605003827181e-01 
  1.730165445846e-01 
  1.476118206097e-01 
  1.540910149165e-01 
  1.605702092232e-01 
  1.268401861017e-01 
  1.333193804085e-01 
  1.060685515937e-01 
  1.937523384229e-01 
  1.830711183202e-01 
  1.723898982175e-01 
  1.951983335868e-01 
  1.845171134841e-01 
  1.966443287507e-01 
  1.628120391262e-01 
  1.672523229803e-01 
  1.716926068345e-01 
  1.836816815351e-01 
  1.881219653892e-01 
  2.045513239440e-01 
  1.060419679591e-01 
  9.680334865059e-02 
  8.756472934206e-02 
  7.628796202167e-02 
  6.704934271313e-02 
  4.653395608421e-02 
  1.052432703098e-01 
  1.242883927185e-01 
  1.433335151273e-01 
  9.676149168419e-02 
  1.158066140929e-01 
  8.827971305861e-02 
  1.427140698744e-01 
  1.249386056196e-01 
  1.071631413648e-01 
  1.156565601204e-01 
  9.788109586559e-02 
  8.859905036641e-02 
  2.043928558026e-01 
  1.884725615242e-01 
  1.725522672458e-01 
  1.931327414833e-01 
  1.772124472049e-01 
  1.818726271641e-01 
  1.577227280535e-01 
  1.530923617774e-01 
  1.484619955012e-01 
  1.236609115692e-01 
  1.190305452931e-01 
  8.959909508493e-02 
  1.582436370669e-01 
  1.822703359897e-01 
  2.062970349124e-01 
  1.544111028856e-01 
  1.784378018084e-01 
  1.505785687043e-01 
  8.873730588141e-02 
  9.667441301716e-02 
  1.046115201529e-01 
  4.448880213065e-02 
  5.242590926640e-02 
  2.402983798946e-04 
  1.063412367016e-01 
  9.734845122001e-02 
  8.835566573845e-02 
  1.282846081617e-01 
  1.192918226801e-01 
  1.502279796218e-01 
  1.708964641776e-01 
  8.848864313787e-02 
  6.080822098126e-03 
  8.521497445988e-02 
  2.807153420131e-03 
 -4.665152578634e-04 
  1.676140849356e-02 
  9.390417476552e-03 
  2.019426459542e-03 
  1.127258171610e-01 
  1.053548261440e-01 
  2.086902258284e-01 
  1.521533945563e-01 
  1.545881584641e-01 
  1.570229223720e-01 
  1.293880753628e-01 
  1.318228392706e-01 
  1.066227561693e-01 
  1.899479574900e-01 
  9.357360720352e-02 
 -2.800743082941e-03 
  1.047938844785e-01 
  8.419534192071e-03 
  1.963981146708e-02 
  1.777095876050e-01 
  1.847751642446e-01 
  1.918407408842e-01 
  1.762206753418e-01 
  1.832862519814e-01 
  1.747317630786e-01 
  1.912720723798e-01 
  1.855683324943e-01 
  1.798645926088e-01 
  1.824525653555e-01 
  1.767488254700e-01 
  1.736330583311e-01 
  1.524907329550e-01 
  1.649498050871e-01 
  1.774088772193e-01 
  1.581133945539e-01 
  1.705724666860e-01 
  1.637360561527e-01 
  1.737293413751e-01 
  1.640198291215e-01 
  1.543103168679e-01 
  1.761029770122e-01 
  1.663934647587e-01 
  1.784766126494e-01 
  1.667182865422e-01 
  1.729815781668e-01 
  1.792448697915e-01 
  1.818813637123e-01 
  1.881446553369e-01 
  1.970444408824e-01 
  1.554080170904e-01 
  1.577172315562e-01 
  1.600264460221e-01 
  1.304094205116e-01 
  1.327186349774e-01 
  1.054108239328e-01 
  1.920111063765e-01 
  2.021242713620e-01 
  2.122374363474e-01 
  1.843866412222e-01 
  1.944998062076e-01 
  1.767621760679e-01 
  1.809619725166e-01 
  1.680586000772e-01 
  1.551552276378e-01 
  1.675013432975e-01 
  1.545979708581e-01 
  1.540407140784e-01 
  2.051395545688e-01 
  1.936059856894e-01 
  1.820724168101e-01 
  1.791900704698e-01 
  1.676565015905e-01 
  1.532405863709e-01 
  1.700432562435e-01 
  1.825101695295e-01 
  1.949770828155e-01 
  8.981106161284e-02 
  1.022779748988e-01 
  9.578866982146e-03 
  1.720046855819e-01 
  1.605504931832e-01 
  1.490963007844e-01 
  1.840535948715e-01 
  1.725994024728e-01 
  1.961025041612e-01 
  5.055944686173e-02 
  1.297906407503e-01 
  2.090218346388e-01 
  1.103989531088e-01 
  1.896301469974e-01 
  1.702384593559e-01 
  1.557621225448e-02 
  7.326630226342e-03 
 -9.229518017949e-04 
  3.120645024732e-02 
  2.295686821918e-02 
  4.683668824015e-02 
  1.420868738540e-02 
  6.240846359700e-03 
 -1.726994666000e-03 
  6.871307502817e-03 
 -1.096533522883e-03 
 -4.660723797654e-04 
  4.743623492020e-02 
  2.408881653915e-02 
  7.413981580939e-04 
  6.630067625192e-02 
  4.295325787086e-02 
  8.516511758363e-02 
  1.311693561168e-01 
  1.085739640561e-01 
  8.597857199541e-02 
  6.496329373854e-02 
  4.236790167783e-02 
 -1.242768639738e-03 
  1.348190730098e-01 
  1.662752133373e-01 
  1.977313536649e-01 
  1.427488852863e-01 
  1.742050256139e-01 
  1.506786975628e-01 
  1.332765954120e-01 
  1.425642848785e-01 
  1.518519743450e-01 
  1.100710363347e-01 
  1.193587258012e-01 
  8.686547725741e-02 
  8.934890340193e-04 
  2.417865236749e-02 
  4.746381570096e-02 
  6.568979876540e-05 
  2.335085313224e-02 
 -7.621094364885e-04 
  1.064028835311e-01 
  7.666505233517e-02 
  4.692722113925e-02 
  9.644029936523e-02 
  6.670246816931e-02 
  8.647771519937e-02 
 -8.806019999761e-04 
  3.971207179590e-04 
  1.674843435894e-03 
  6.534956839477e-02 
  6.662729111271e-02 
  1.315797387895e-01 
  2.125881611536e-01 
  1.094407160072e-01 
  6.293270860804e-03 
  2.030239775394e-01 
  9.987653239299e-02 
  1.934597939252e-01 
  1.822527692981e-01 
  1.348499759038e-01 
  8.744718250963e-02 
  1.897518631479e-01 
  1.423490697537e-01 
  1.972509569978e-01 
  8.945561023780e-02 
  4.581268545525e-02 
  2.169760672703e-03 
  8.959243858383e-02 
  4.594951380128e-02 
  8.972926692986e-02 
  1.975124048293e-01 
  9.931562236942e-02 
  1.118839909521e-03 
  1.011136533634e-01 
  2.916870903532e-03 
  4.714901897542e-03 
  1.922375897263e-01 
  9.551412303832e-02 
 -1.209343649650e-03 
  9.772963266727e-02 
  1.006165979301e-03 
  3.221675608252e-03 
  1.783088271300e-01 
  9.171388610171e-02 
  5.118945073430e-03 
  1.662221273684e-01 
  7.962718634007e-02 
  1.541354276067e-01 
  1.312774082767e-01 
  6.568450791011e-02 
  9.160754355637e-05 
  1.600255748849e-01 
  9.443267451837e-02 
  1.887737414932e-01 
  1.737007546109e-01 
  1.797303597594e-01 
  1.857599649079e-01 
  1.808220785116e-01 
  1.868516836601e-01 
  1.879434024122e-01 
  2.255669635409e-01 
  1.138759156798e-01 
  2.184867818627e-03 
  1.140775252860e-01 
  2.386477424889e-03 
  2.588087031151e-03 
  1.967294742275e-01 
  1.934636806270e-01 
  1.901978870266e-01 
  2.161263603663e-01 
  2.128605667659e-01 
  2.355232465052e-01 
  1.882341466953e-01 
  1.932715083646e-01 
  1.983088700339e-01 
  1.607052195653e-01 
  1.657425812345e-01 
  1.331762924352e-01 
  2.159209724397e-01 
  2.043676215578e-01 
  1.928142706759e-01 
  2.128335443988e-01 
  2.012801935169e-01 
  2.097461163580e-01 
  1.949743890382e-01 
  1.873101256169e-01 
  1.796458621955e-01 
  2.024274289159e-01 
  1.947631654945e-01 
  2.098804687935e-01 
  2.126514088029e-01 
  2.026618590433e-01 
  1.926723092836e-01 
  2.237230180112e-01 
  2.137334682515e-01 
  2.347946272194e-01 
  2.355553529252e-01 
  2.526216420767e-01 
  2.696879312281e-01 
  2.235537692909e-01 
  2.406200584423e-01 
  2.115521856565e-01 
  2.355501587521e-01 
  2.137189161652e-01 
  1.918876735784e-01 
  2.288591392233e-01 
  2.070278966365e-01 
  2.221681196946e-01 
  1.967547248900e-01 
  2.153684304100e-01 
  2.339821359299e-01 
  1.949143728556e-01 
  2.135280783756e-01 
  1.930740208213e-01 
  2.217691685318e-01 
  2.232550095711e-01 
  2.247408506103e-01 
  2.474056814361e-01 
  2.488915224754e-01 
  2.730421943404e-01 
  2.224343026636e-01 
  2.088667084322e-01 
  1.952991142007e-01 
  1.148230212057e-01 
  1.012554269743e-01 
  7.211739747781e-03 
  2.212454309541e-01 
  2.462238288518e-01 
  2.712022267495e-01 
  2.500878726656e-01 
  2.750662705633e-01 
  2.789303143772e-01 
  2.706228441054e-01 
  2.451463379971e-01 
  2.196698318888e-01 
  2.403706199409e-01 
  2.148941138327e-01 
  2.101183957765e-01 
  2.166480413357e-01 
  2.178155309654e-01 
  2.189830205951e-01 
  2.268533020420e-01 
  2.280207916717e-01 
  2.370585627483e-01 
  2.174743304983e-01 
  2.168652080852e-01 
  2.162560856721e-01 
  2.043853165125e-01 
  2.037761940994e-01 
  1.912963025267e-01 
  2.769688686815e-01 
  2.748676743343e-01 
  2.727664799871e-01 
  2.509764204148e-01 
  2.488752260676e-01 
  2.249839721480e-01 
  2.224122661855e-01 
  2.465532153907e-01 
  2.706941645959e-01 
  2.286716850380e-01 
  2.528126342432e-01 
  2.349311038906e-01 
  5.836189411792e-03 
  1.148288578884e-01 
  2.238215263649e-01 
  1.146389965321e-01 
  2.236316650086e-01 
  2.234418036523e-01 