# vtk DataFile Version 2
NuDG++ 2D simulation
ASCII
DATASET UNSTRUCTURED_GRID

POINTS 2244 double
 -1.656250060000e-01  -2.000000030000e-01  0.0
 -1.828125045000e-01  -1.772221997500e-01  0.0
 -2.000000030000e-01  -1.544443965000e-01  0.0
 -1.828125045000e-01  -2.000000030000e-01  0.0
 -2.000000030000e-01  -1.772221997500e-01  0.0
 -2.000000030000e-01  -2.000000030000e-01  0.0
 -6.428571790000e-02  -1.700000018000e-01  0.0
 -8.058035746000e-02  -1.850000024000e-01  0.0
 -9.687499702000e-02  -2.000000030000e-01  0.0
 -6.339285895000e-02  -1.850000024000e-01  0.0
 -7.968749851000e-02  -2.000000030000e-01  0.0
 -6.250000000000e-02  -2.000000030000e-01  0.0
 -2.000000030000e-01  -1.544443965000e-01  0.0
 -1.750000045000e-01  -1.379364989500e-01  0.0
 -1.500000060000e-01  -1.214286014000e-01  0.0
 -2.000000030000e-01  -1.316666491500e-01  0.0
 -1.750000045000e-01  -1.151587516000e-01  0.0
 -2.000000030000e-01  -1.088889018000e-01  0.0
 -1.500000060000e-01  -1.214286014000e-01  0.0
 -1.750000045000e-01  -1.379364989500e-01  0.0
 -2.000000030000e-01  -1.544443965000e-01  0.0
 -1.500000060000e-01  -1.457143016000e-01  0.0
 -1.750000045000e-01  -1.622221991500e-01  0.0
 -1.500000060000e-01  -1.700000018000e-01  0.0
 -1.500000060000e-01  -7.285714149000e-02  0.0
 -1.750000045000e-01  -9.087302164500e-02  0.0
 -2.000000030000e-01  -1.088889018000e-01  0.0
 -1.500000060000e-01  -9.714287144500e-02  0.0
 -1.750000045000e-01  -1.151587516000e-01  0.0
 -1.500000060000e-01  -1.214286014000e-01  0.0
  1.832975030000e+00  -4.625000060000e-02  0.0
  1.853987515000e+00  -1.231250018000e-01  0.0
  1.875000000000e+00  -2.000000030000e-01  0.0
  1.916487515000e+00  -7.187499851000e-02  0.0
  1.937500000000e+00  -1.487499997100e-01  0.0
  2.000000000000e+00  -9.749999642000e-02  0.0
 -1.500000060000e-01  -1.700000018000e-01  0.0
 -1.360000037000e-01  -1.525000036000e-01  0.0
 -1.220000014000e-01  -1.350000054000e-01  0.0
 -1.500000060000e-01  -1.457143016000e-01  0.0
 -1.360000037000e-01  -1.282143034000e-01  0.0
 -1.500000060000e-01  -1.214286014000e-01  0.0
  2.849999964000e-01  -2.333333530000e-02  0.0
  2.837499976000e-01  -8.166666795000e-02  0.0
  2.824999988000e-01  -1.400000006000e-01  0.0
  3.174999952000e-01  -4.666666780000e-02  0.0
  3.162499964000e-01  -1.050000004500e-01  0.0
  3.499999940000e-01  -7.000000030000e-02  0.0
 -1.071429029000e-01  -1.700000018000e-01  0.0
 -8.571431040000e-02  -1.700000018000e-01  0.0
 -6.428571790000e-02  -1.700000018000e-01  0.0
 -9.857145324000e-02  -1.525000036000e-01  0.0
 -7.714286074000e-02  -1.525000036000e-01  0.0
 -9.000000358000e-02  -1.350000054000e-01  0.0
 -1.312499940000e-01  -2.000000030000e-01  0.0
 -1.191964484500e-01  -1.850000024000e-01  0.0
 -1.071429029000e-01  -1.700000018000e-01  0.0
 -1.406250000000e-01  -1.850000024000e-01  0.0
 -1.285714544500e-01  -1.700000018000e-01  0.0
 -1.500000060000e-01  -1.700000018000e-01  0.0
 -1.220000014000e-01  -1.350000054000e-01  0.0
 -1.060000024900e-01  -1.350000054000e-01  0.0
 -9.000000358000e-02  -1.350000054000e-01  0.0
 -1.185000017500e-01  -1.175000034500e-01  0.0
 -1.025000028400e-01  -1.175000034500e-01  0.0
 -1.150000021000e-01  -1.000000015000e-01  0.0
 -9.000000358000e-02  -1.350000054000e-01  0.0
 -1.060000024900e-01  -1.350000054000e-01  0.0
 -1.220000014000e-01  -1.350000054000e-01  0.0
 -9.857145324000e-02  -1.525000036000e-01  0.0
 -1.145714521500e-01  -1.525000036000e-01  0.0
 -1.071429029000e-01  -1.700000018000e-01  0.0
 -7.778175920000e-02  -9.192386270000e-02  0.0
 -9.639088065000e-02  -9.596193210000e-02  0.0
 -1.150000021000e-01  -1.000000015000e-01  0.0
 -8.389088139000e-02  -1.134619340500e-01  0.0
 -1.025000028400e-01  -1.175000034500e-01  0.0
 -9.000000358000e-02  -1.350000054000e-01  0.0
 -1.220000014000e-01  -1.350000054000e-01  0.0
 -1.185000017500e-01  -1.175000034500e-01  0.0
 -1.150000021000e-01  -1.000000015000e-01  0.0
 -1.360000037000e-01  -1.282143034000e-01  0.0
 -1.325000040500e-01  -1.107143014500e-01  0.0
 -1.500000060000e-01  -1.214286014000e-01  0.0
 -7.778175920000e-02  -9.192386270000e-02  0.0
 -8.389088139000e-02  -1.134619340500e-01  0.0
 -9.000000358000e-02  -1.350000054000e-01  0.0
 -6.639088876500e-02  -1.022535823500e-01  0.0
 -7.250001095500e-02  -1.237916537000e-01  0.0
 -5.500001833000e-02  -1.125833020000e-01  0.0
 -1.071429029000e-01  -1.700000018000e-01  0.0
 -1.145714521500e-01  -1.525000036000e-01  0.0
 -1.220000014000e-01  -1.350000054000e-01  0.0
 -1.285714544500e-01  -1.700000018000e-01  0.0
 -1.360000037000e-01  -1.525000036000e-01  0.0
 -1.500000060000e-01  -1.700000018000e-01  0.0
  6.250000093000e-03  -2.000000030000e-01  0.0
  4.062500153650e-02  -2.000000030000e-01  0.0
  7.500000298000e-02  -2.000000030000e-01  0.0
  1.383928512150e-02  -1.850000024000e-01  0.0
  4.821428656500e-02  -1.850000024000e-01  0.0
  2.142857015000e-02  -1.700000018000e-01  0.0
 -1.500000060000e-01  -7.285714149000e-02  0.0
 -1.500000060000e-01  -9.714287144500e-02  0.0
 -1.500000060000e-01  -1.214286014000e-01  0.0
 -1.325000040500e-01  -8.642857149500e-02  0.0
 -1.325000040500e-01  -1.107143014500e-01  0.0
 -1.150000021000e-01  -1.000000015000e-01  0.0
 -2.000000030000e-01  -6.333333254000e-02  0.0
 -1.750000045000e-01  -6.809523701500e-02  0.0
 -1.500000060000e-01  -7.285714149000e-02  0.0
 -1.750000045000e-01  -4.380952660000e-02  0.0
 -1.500000060000e-01  -4.857143107500e-02  0.0
 -1.500000060000e-01  -2.428572066000e-02  0.0
 -2.000000030000e-01  -6.333333254000e-02  0.0
 -2.000000030000e-01  -8.611111717000e-02  0.0
 -2.000000030000e-01  -1.088889018000e-01  0.0
 -1.750000045000e-01  -6.809523701500e-02  0.0
 -1.750000045000e-01  -9.087302164500e-02  0.0
 -1.500000060000e-01  -7.285714149000e-02  0.0
 -2.000000030000e-01  -6.333333254000e-02  0.0
 -1.750000045000e-01  -4.380952660000e-02  0.0
 -1.500000060000e-01  -2.428572066000e-02  0.0
 -2.000000030000e-01  -4.055555630500e-02  0.0
 -1.750000045000e-01  -2.103175036500e-02  0.0
 -2.000000030000e-01  -1.777778007000e-02  0.0
 -1.500000060000e-01  -2.428572066000e-02  0.0
 -1.500000060000e-01  -4.857143107500e-02  0.0
 -1.500000060000e-01  -7.285714149000e-02  0.0
 -1.281259023000e-01  -2.896608505500e-02  0.0
 -1.281259023000e-01  -5.325179547000e-02  0.0
 -1.062517986000e-01  -3.364644945000e-02  0.0
 -1.099999994000e-01   1.996667010000e-08  0.0
 -1.300000027000e-01  -1.214285034666e-02  0.0
 -1.500000060000e-01  -2.428572066000e-02  0.0
 -1.081258990000e-01  -1.682321474166e-02  0.0
 -1.281259023000e-01  -2.896608505500e-02  0.0
 -1.062517986000e-01  -3.364644945000e-02  0.0
 -1.500000060000e-01  -2.428572066000e-02  0.0
 -1.500000060000e-01   0.000000000000e+00  0.0
 -1.500000060000e-01   2.428572066000e-02  0.0
 -1.750000045000e-01  -2.103175036500e-02  0.0
 -1.750000045000e-01   3.253970295000e-03  0.0
 -2.000000030000e-01  -1.777778007000e-02  0.0
 -1.500000060000e-01  -7.285714149000e-02  0.0
 -1.226314045700e-01  -6.892856210000e-02  0.0
 -9.526280314000e-02  -6.499998271000e-02  0.0
 -1.281259023000e-01  -5.325179547000e-02  0.0
 -1.007573008700e-01  -4.932321608000e-02  0.0
 -1.062517986000e-01  -3.364644945000e-02  0.0
  3.499999940000e-01   1.400000006000e-01  0.0
  4.021931737500e-01   1.224999986500e-01  0.0
  4.543863535000e-01   1.049999967000e-01  0.0
  4.187500029500e-01   1.749999970000e-01  0.0
  4.709431827000e-01   1.574999950500e-01  0.0
  4.875000119000e-01   2.099999934000e-01  0.0
 -7.101409137000e-02  -4.349999130000e-02  0.0
 -8.313844725500e-02  -5.424998700500e-02  0.0
 -9.526280314000e-02  -6.499998271000e-02  0.0
 -6.449843011500e-02  -5.250913650000e-02  0.0
 -7.662278600000e-02  -6.325913220500e-02  0.0
 -5.798276886000e-02  -6.151828170000e-02  0.0
 -9.526280314000e-02  -6.499998271000e-02  0.0
 -1.226314045700e-01  -6.892856210000e-02  0.0
 -1.500000060000e-01  -7.285714149000e-02  0.0
 -1.051314026200e-01  -8.249999210500e-02  0.0
 -1.325000040500e-01  -8.642857149500e-02  0.0
 -1.150000021000e-01  -1.000000015000e-01  0.0
 -6.181925908000e-02  -1.656441018000e-02  0.0
 -7.051259093000e-02  -1.954082492500e-02  0.0
 -7.920592278000e-02  -2.251723967000e-02  0.0
 -5.862244405000e-02  -2.428220026000e-02  0.0
 -6.731577590000e-02  -2.725861500500e-02  0.0
 -5.542562902000e-02  -3.199999034000e-02  0.0
 -7.920592278000e-02  -2.251723967000e-02  0.0
 -9.272886069000e-02  -2.808184456000e-02  0.0
 -1.062517986000e-01  -3.364644945000e-02  0.0
 -7.511000707500e-02  -3.300861548500e-02  0.0
 -8.863294498500e-02  -3.857322037500e-02  0.0
 -7.101409137000e-02  -4.349999130000e-02  0.0
 -7.101409137000e-02  -4.349999130000e-02  0.0
 -6.321986019500e-02  -3.774999082000e-02  0.0
 -5.542562902000e-02  -3.199999034000e-02  0.0
 -7.511000707500e-02  -3.300861548500e-02  0.0
 -6.731577590000e-02  -2.725861500500e-02  0.0
 -7.920592278000e-02  -2.251723967000e-02  0.0
 -7.920592278000e-02  -2.251723967000e-02  0.0
 -9.460296109000e-02  -1.125860985166e-02  0.0
 -1.099999994000e-01   1.996667010000e-08  0.0
 -9.272886069000e-02  -2.808184456000e-02  0.0
 -1.081258990000e-01  -1.682321474166e-02  0.0
 -1.062517986000e-01  -3.364644945000e-02  0.0
 -7.778175920000e-02  -9.192386270000e-02  0.0
 -6.788226403000e-02  -7.672107220000e-02  0.0
 -5.798276886000e-02  -6.151828170000e-02  0.0
 -8.652228117000e-02  -7.846192270500e-02  0.0
 -7.662278600000e-02  -6.325913220500e-02  0.0
 -9.526280314000e-02  -6.499998271000e-02  0.0
 -7.101409137000e-02  -4.349999130000e-02  0.0
 -8.863294498500e-02  -3.857322037500e-02  0.0
 -1.062517986000e-01  -3.364644945000e-02  0.0
 -8.313844725500e-02  -5.424998700500e-02  0.0
 -1.007573008700e-01  -4.932321608000e-02  0.0
 -9.526280314000e-02  -6.499998271000e-02  0.0
 -7.778175920000e-02  -9.192386270000e-02  0.0
 -8.652228117000e-02  -7.846192270500e-02  0.0
 -9.526280314000e-02  -6.499998271000e-02  0.0
 -9.639088065000e-02  -9.596193210000e-02  0.0
 -1.051314026200e-01  -8.249999210500e-02  0.0
 -1.150000021000e-01  -1.000000015000e-01  0.0
[...]
POINT_DATA 2244
SCALARS field1 double 1
LOOKUP_TABLE default
  2.935460888719e-03 
  1.208577917016e-01 
  2.387801225145e-01 
  1.315498421189e-03 
  1.192378292341e-01 
 -3.044640463404e-04 
  3.437604114968e-01 
  1.706965587078e-01 
 -2.367294081233e-03 
  1.728974706427e-01 
 -1.663821463447e-04 
  2.034529788544e-03 
  2.362335940081e-01 
  3.054405634609e-01 
  3.746475329137e-01 
  3.256864103407e-01 
  3.948933797935e-01 
  4.151392266733e-01 
  3.755774169294e-01 
  3.058141917759e-01 
  2.360509666224e-01 
  2.821014871798e-01 
  2.123382620263e-01 
  1.886255574302e-01 
  5.164418683046e-01 
  4.660245069640e-01 
  4.156071456235e-01 
  4.479465210163e-01 
  3.975291596758e-01 
  3.794511737281e-01 
  2.094417417136e-01 
  6.326165241074e-02 
 -8.291843689211e-02 
  2.546897786665e-01 
  1.085096893637e-01 
  2.999378156195e-01 
  1.893686738618e-01 
  2.714326119296e-01 
  3.534965499973e-01 
  2.829344388230e-01 
  3.649983768908e-01 
  3.765002037842e-01 
  5.074054824013e-01 
  4.760574147176e-01 
  4.447093470338e-01 
  5.089123744120e-01 
  4.775643067282e-01 
  5.104192664226e-01 
  2.540785479101e-01 
  2.993457058947e-01 
  3.446128638792e-01 
  3.268068134114e-01 
  3.720739713960e-01 
  3.995350789127e-01 
  5.896281841026e-07 
  1.274970540009e-01 
  2.549935183735e-01 
  9.170485882258e-02 
  2.192013231953e-01 
  1.834091280170e-01 
  3.494574852072e-01 
  3.736344930020e-01 
  3.978115007969e-01 
  4.144998742637e-01 
  4.386768820586e-01 
  4.795422633203e-01 
  3.962173653523e-01 
  3.731245026884e-01 
  3.500316400244e-01 
  3.250805332393e-01 
  3.019876705754e-01 
  2.539437011263e-01 
  5.304019045789e-01 
  5.050224063457e-01 
  4.796429081126e-01 
  4.659527342473e-01 
  4.405732360142e-01 
  4.015035639158e-01 
  3.517734809797e-01 
  4.151121777395e-01 
  4.784508744992e-01 
  3.645091998819e-01 
  4.278478966417e-01 
  3.772449187842e-01 
  5.307249947745e-01 
  4.654199191579e-01 
  4.001148435413e-01 
  5.346195377508e-01 
  4.693144621342e-01 
  5.385140807271e-01 
  2.531160346452e-01 
  3.032728695521e-01 
  3.534297044590e-01 
  2.203685568813e-01 
  2.705253917882e-01 
  1.876210791175e-01 
  1.506480319205e-03 
  3.964506282827e-03 
  6.422532246448e-03 
  2.475828885000e-01 
  2.500409144636e-01 
  4.936592966808e-01 
  5.160918336909e-01 
  4.469630938375e-01 
  3.778343539842e-01 
  4.968638062650e-01 
  4.277350664116e-01 
  4.776357788391e-01 
  5.354401888278e-01 
  5.239614190374e-01 
  5.124826492470e-01 
  5.499145967436e-01 
  5.384358269532e-01 
  5.643890046595e-01 
  5.339949289530e-01 
  4.748944253128e-01 
  4.157939216726e-01 
  5.237482691751e-01 
  4.646477655350e-01 
  5.135016093973e-01 
  5.370939213262e-01 
  5.509500497445e-01 
  5.648061781628e-01 
  5.664513091975e-01 
  5.803074376158e-01 
  5.958086970687e-01 
  5.647621503085e-01 
  5.409786736682e-01 
  5.171951970280e-01 
  5.293804081253e-01 
  5.055969314851e-01 
  4.939986659422e-01 
  4.674461794416e-01 
  5.163712230427e-01 
  5.652962666437e-01 
  4.773416730894e-01 
  5.262667166905e-01 
  4.872371667372e-01 
  5.593698751595e-01 
  5.668938840251e-01 
  5.744178928907e-01 
  5.779603231706e-01 
  5.854843320362e-01 
  5.965507711818e-01 
  5.162131662218e-01 
  5.037240634460e-01 
  4.912349606702e-01 
  5.041616730032e-01 
  4.916725702274e-01 
  4.921101797845e-01 
  4.381905782496e-01 
  4.891917201323e-01 
  5.401928620150e-01 
  2.506208797992e-01 
  3.016220216819e-01 
  6.305118134880e-02 
  4.583742130345e-01 
  4.783281508926e-01 
  4.982820887506e-01 
  5.110710185150e-01 
  5.310249563730e-01 
  5.637678239955e-01 
  4.936997928592e-01 
  5.050498037932e-01 
  5.163998147272e-01 
  4.876980149445e-01 
  4.990480258785e-01 
  4.816962370297e-01 
  1.801476328676e-01 
  2.695901636183e-01 
  3.590326943690e-01 
  2.385203752278e-01 
  3.279629059785e-01 
  2.968931175879e-01 
  3.441159605666e-01 
  4.142961306104e-01 
  4.844763006541e-01 
  4.013294387147e-01 
  4.715096087584e-01 
  4.585429168628e-01 
  4.610284758052e-01 
  3.829742239690e-01 
  3.049199721328e-01 
  4.072205422638e-01 
  3.291662904276e-01 
  3.534126087224e-01 
  3.432299839988e-01 
  4.026397030979e-01 
  4.620494221971e-01 
  4.150232097317e-01 
  4.744329288309e-01 
  4.868164354647e-01 
  5.305944872772e-01 
  5.495878963931e-01 
  5.685813055091e-01 
  5.135213487625e-01 
  5.325147578784e-01 
  4.964482102478e-01 
  4.614842465592e-01 
  4.748620050348e-01 
  4.882397635104e-01 
  4.812158880326e-01 
  4.945936465082e-01 
  5.009475295059e-01 
  5.253121896673e-01 
  5.090638220447e-01 
  4.928154544221e-01 
  5.024660796806e-01 
  4.862177120580e-01 
  4.796199696938e-01 
  3.540837308231e-01 
  2.707558203611e-01 
  1.874279098992e-01 
  3.398010033645e-01 
  2.564730929026e-01 
  3.255182759060e-01 
  5.378715157112e-01 
  4.688950945789e-01 
  3.999186734467e-01 
  4.418184759478e-01 
  3.728420548156e-01 
  3.457654361845e-01 
  2.546529176979e-01 
  2.730104960494e-01 
  2.913680744009e-01 
  4.125374186209e-01 
  4.308949969724e-01 
  5.704219195439e-01 
  5.554340569550e-01 
  4.957477986483e-01 
  4.360615403416e-01 
  5.802358021394e-01 
  5.205495438327e-01 
  6.050375473237e-01 
  5.519382369643e-01 
  5.438531316447e-01 
  5.357680263250e-01 
  4.491839301302e-01 
  4.410988248106e-01 
  3.464296232962e-01 
  5.277614534003e-01 
  5.974120211341e-01 
  6.670625888679e-01 
  5.473357338868e-01 
  6.169863016206e-01 
  5.669100143733e-01 
  6.705870432134e-01 
  5.997878787057e-01 
  5.289887141980e-01 
  6.085328591296e-01 
  5.377336946219e-01 
  5.464786750458e-01 
  7.624065497411e-01 
  7.175601307355e-01 
  6.727137117299e-01 
  6.518475207370e-01 
  6.070011017315e-01 
  5.412884917330e-01 
  6.608133247807e-01 
  6.135576873435e-01 
  5.663020499063e-01 
  6.694404515369e-01 
  6.221848140997e-01 
  6.780675782932e-01 
  5.376778710224e-01 
  5.488793155326e-01 
  5.600807600429e-01 
  6.520733005241e-01 
  6.632747450344e-01 
  7.664687300259e-01 
  5.546413474296e-01 
  4.514916464420e-01 
  3.483419454543e-01 
  4.953560259469e-01 
  3.922063249592e-01 
  4.360707044641e-01 
  8.200110685872e-01 
  7.947108415695e-01 
  7.694106145517e-01 
  6.915595091851e-01 
  6.662592821673e-01 
  5.631079497829e-01 
 -5.252710500665e-04 
  3.230849737616e-01 
  6.466952185733e-01 
 -5.878685076460e-03 
  3.177315597352e-01 
 -1.123209910285e-02 
  7.848953843820e-01 
  7.332654964032e-01 
  6.816356084243e-01 
  7.530402487890e-01 
  7.014103608102e-01 
  7.211851131961e-01 
  6.763867849376e-01 
  7.305703150509e-01 
  7.847538451642e-01 
  7.392889363539e-01 
  7.934724664672e-01 
  8.021910877702e-01 
  7.183926796909e-01 
  6.957080079952e-01 
  6.730233362995e-01 
  3.659411438953e-01 
  3.432564721996e-01 
  1.348960809964e-02 
  7.684220883741e-01 
  7.463652417393e-01 
  7.243083951045e-01 
  7.236939742849e-01 
  7.016371276500e-01 
  6.789658601956e-01 
  7.636500747235e-01 
  7.086737594456e-01 
  6.536974441676e-01 
  7.868017157474e-01 
  7.318254004694e-01 
  8.099533567712e-01 
  8.218675746416e-01 
  6.925653223444e-01 
  5.632630700473e-01 
  7.140222345906e-01 
  5.847199822935e-01 
  6.061768945397e-01 
  4.371488083443e-01 
  4.589575050483e-01 
  4.807662017524e-01 
  5.216566719916e-01 
  5.434653686956e-01 
  6.061645356389e-01 
  6.577323364711e-01 
  6.718222438067e-01 
  6.859121511423e-01 
  6.888907813772e-01 
  7.029806887128e-01 
  7.200492262834e-01 
 -1.426683329483e-03 
  1.543378602922e-01 
  3.101024039138e-01 
  7.438160685443e-03 
  1.632027043071e-01 
  1.630300470037e-02 
  3.047646634445e-01 
  3.797829523009e-01 
  4.548012411573e-01 
  3.977689625061e-01 
  4.727872513625e-01 
  4.907732615677e-01 
  4.386589147904e-01 
  2.215979951517e-01 
  4.537075513139e-03 
  2.204707213671e-01 
  3.409801728519e-03 
  2.282527943899e-03 
 -1.364917600285e-02 
  2.697543790170e-02 
  6.760005180625e-02 
  8.183693704619e-02 
  1.224615509507e-01 
  1.773230500952e-01 
  6.706551606116e-03 
 -3.412649350573e-03 
 -1.353185030726e-02 
  1.491595036742e-01 
  1.390403027175e-01 
  2.916124557423e-01 
  2.950822502140e-01 
  1.484164392509e-01 
  1.750628287774e-03 
  2.644688728681e-01 
  1.178030619050e-01 
  2.338554955223e-01 
  3.068386460357e-01 
  4.054543533220e-01 
  5.040700606082e-01 
  1.645879621722e-01 
  2.632036694584e-01 
  2.233727830859e-02 
 -1.907397792339e-02 
  7.680405908339e-02 
  1.726820960902e-01 
  1.352626033880e-01 
  2.311406403948e-01 
  2.895991846993e-01 
  6.368020093382e-03 
  7.283123620772e-03 
  8.198227148162e-03 
  3.636584588462e-01 
  3.645735623736e-01 
  7.209488975989e-01 
  1.273345374072e-02 
  3.428551131785e-01 
  6.729767726163e-01 
  6.681875673213e-03 
  3.368035351110e-01 
  6.302976057009e-04 
  4.684386723528e-01 
  2.347051491015e-01 
  9.716258502333e-04 
  4.261760881655e-01 
  1.924425649142e-01 
  3.839135039782e-01 
  5.557522643420e-03 
  2.680209602662e-01 
  5.304843978890e-01 
  1.506819064634e-02 
  2.775316282691e-01 
  2.457885864926e-02 
  1.912630494913e-02 
  3.380684238854e-01 
  6.570105428216e-01 
  3.657144902965e-01 
  6.846566092327e-01 
  7.123026756438e-01 
  4.380558762287e-01 
  2.235492603299e-01 
  9.042644430979e-03 
  4.587675045343e-01 
  2.442608886354e-01 
  4.794791328399e-01 
  2.598231766063e-01 
  1.305593811712e-01 
  1.295585736231e-03 
  1.319311060936e-01 
  2.667310658595e-03 
  4.039035580959e-03 
  3.597604607149e-02 
  2.791036201837e-01 
  5.222311942958e-01 
  3.454716522265e-01 
  5.885992263387e-01 
  6.549672583815e-01 
  5.021408899491e-01 
  5.346987641105e-01 
  5.672566382719e-01 
  5.798115715913e-01 
  6.123694457527e-01 
  6.574822532335e-01 
  3.533926114160e-01 
  1.811598274327e-01 
  8.927043449339e-03 
  3.914417453611e-01 
  2.192089613778e-01 
  4.294908793063e-01 
  8.203638467192e-01 
  7.114074360661e-01 
  6.024510254131e-01 
  7.394561916872e-01 
  6.304997810342e-01 
  6.585485366552e-01 
  4.943520770427e-01 
  4.739151602347e-01 
  4.534782434268e-01 
  5.320421046878e-01 
  5.116051878799e-01 
  5.697321323330e-01 
  1.830351577728e-03 
  5.130510495827e-03 
  8.430669413926e-03 
  1.794627425558e-01 
  1.827629014739e-01 
  3.570951335338e-01 
  5.916485530601e-02 
  2.647293898428e-02 
 -6.218977337453e-03 
  2.713845259725e-02 
 -5.553463724478e-03 
 -4.887950111503e-03 
  5.422625395600e-01 
  5.576379784273e-01 
  5.730134172947e-01 
  5.247951492843e-01 
  5.401705881516e-01 
  5.073277590085e-01 
  5.752171664232e-01 
  5.845787426733e-01 
  5.939403189235e-01 
  5.863317059240e-01 
  5.956932821741e-01 
  5.974462454248e-01 
  5.928502487133e-01 
  5.646154667170e-01 
  5.363806847207e-01 
  5.635763778494e-01 
  5.353415958531e-01 
  5.343025069855e-01 
  5.371561804602e-01 
  5.644471237376e-01 
  5.917380670150e-01 
  5.543675315642e-01 
  5.816584748416e-01 
  5.715788826683e-01 
  5.333532018356e-01 
  5.356803602623e-01 
  5.380075186889e-01 
  4.750555198116e-01 
  4.773826782383e-01 
  4.167578377877e-01 
 -4.626208213377e-02 
 -8.326368707081e-02 
 -1.202652920078e-01 
  7.339382533819e-02 
  3.639222040115e-02 
  1.930497328101e-01 
  5.758452775814e-01 
  5.226598332144e-01 
  4.694743888474e-01 
  5.380984648356e-01 
  4.849130204686e-01 
  5.003516520898e-01 
  5.757761566678e-01 
  5.692462895115e-01 
  5.627164223551e-01 
  5.246613488752e-01 
  5.181314817189e-01 
  4.735465410826e-01 
  3.518711871020e-01 
  4.263112362270e-01 
  5.007512853520e-01 
  4.085570567942e-01 
  4.829971059192e-01 
  4.652429264864e-01 
  4.766430363111e-01 
  4.170026434250e-01 
  3.573622505388e-01 
  3.965854760542e-01 
  3.369450831680e-01 
  3.165279157973e-01 
  4.994455638259e-01 
  4.825363689050e-01 
  4.656271739841e-01 
  5.044850170370e-01 
  4.875758221162e-01 
  5.095244702482e-01 
  4.654795448300e-01 
  4.806282943947e-01 
  4.957770439595e-01 
  4.092395595040e-01 
  4.243883090688e-01 
  3.529995741780e-01 
  5.364809888377e-01 
  5.215538097313e-01 
  5.066266306249e-01 
  5.606380303986e-01 
  5.457108512921e-01 
  5.847950719594e-01 
  5.042756765482e-01 
  5.054708945952e-01 
  5.066661126422e-01 
  5.236480765142e-01 
  5.248432945612e-01 
  5.430204764802e-01 
  3.584063689842e-01 
  3.402856542347e-01 
  3.221649394852e-01 
  2.756644983082e-01 
  2.575437835587e-01 
  1.929226276322e-01 
  3.525258124487e-01 
  4.072107174632e-01 
  4.618956224777e-01 
  3.358685477491e-01 
  3.905534527636e-01 
  3.192112830495e-01 
  4.594944603151e-01 
  4.024651404361e-01 
  3.454358205572e-01 
  3.907068468446e-01 
  3.336775269656e-01 
  3.219192333741e-01 
  5.415673483658e-01 
  5.266784625230e-01 
  5.117895766802e-01 
  5.198916781379e-01 
  5.050027922951e-01 
  4.982160079100e-01 
  4.160294547686e-01 
  4.105693984556e-01 
  4.051093421425e-01 
  3.263046574302e-01 
  3.208446011171e-01 
  2.365798600917e-01 
  4.170527542854e-01 
  4.785279635813e-01 
  5.400031728772e-01 
  4.127380006011e-01 
  4.742132098969e-01 
  4.084232469167e-01 
  2.347016160889e-01 
  2.341967955468e-01 
  2.336919750046e-01 
  1.171842954653e-01 
  1.166794749231e-01 
 -3.330251584016e-04 
  2.358928956760e-01 
  2.356510573659e-01 
  2.354092190558e-01 
  3.208478064149e-01 
  3.206059681047e-01 
  4.058027171537e-01 
  3.043364392813e-01 
  1.545261549112e-01 
  4.715870541011e-03 
  1.521203279521e-01 
  2.310043582006e-03 
 -9.578337699858e-05 
  2.782121040347e-02 
  1.432514927136e-02 
  8.290881392514e-04 
  2.463350567184e-01 
  2.328389955863e-01 
  4.648489030334e-01 
  4.060418038271e-01 
  3.941578515198e-01 
  3.822738992126e-01 
  3.213879275152e-01 
  3.095039752080e-01 
  2.367340512034e-01 
  4.276596850409e-01 
  2.140460844948e-01 
  4.324839486638e-04 
  2.310432542479e-01 
  1.742965370172e-02 
  3.442682345479e-02 
  4.953812859524e-01 
  5.136053271378e-01 
  5.318293683232e-01 
  4.668733708641e-01 
  4.850974120495e-01 
  4.383654557759e-01 
  5.302827707956e-01 
  5.138265979204e-01 
  4.973704250452e-01 
  5.207352217181e-01 
  5.042790488429e-01 
  5.111876726405e-01 
  3.782700447988e-01 
  4.094049810804e-01 
  4.405399173620e-01 
  3.382167554570e-01 
  3.693516917387e-01 
  2.981634661153e-01 
  4.375463348133e-01 
  4.087130944454e-01 
  3.798798540775e-01 
  4.657618912561e-01 
  4.369286508882e-01 
  4.939774476989e-01 
  3.001998227649e-01 
  3.721367550735e-01 
  4.440736873820e-01 
  3.506973003591e-01 
  4.226342326676e-01 
  4.011947779532e-01 
  3.817242146166e-01 
  3.382412934623e-01 
  2.947583723081e-01 
  3.086827066875e-01 
  2.651997855332e-01 
  2.356411987584e-01 
  5.302265297533e-01 
  5.304604254890e-01 
  5.306943212247e-01 
  4.846315907989e-01 
  4.848654865346e-01 
  4.390366518446e-01 
  4.934784165792e-01 
  4.378119442646e-01 
  3.821454719500e-01 
  4.496134988984e-01 
  3.939470265838e-01 
  4.057485812176e-01 
  5.396872827086e-01 
  5.160556434143e-01 
  4.924240041200e-01 
  4.727399523896e-01 
  4.491083130953e-01 
  4.057926220706e-01 
  3.047520442053e-01 
  3.480444259199e-01 
  3.913368076345e-01 
  1.543371592728e-01 
  1.976295409875e-01 
  3.922274340393e-03 
  5.027004070347e-01 
  4.852344050166e-01 
  4.677684029985e-01 
  5.430331169913e-01 
  5.255671149731e-01 
  5.833658269478e-01 
  2.047186623557e-02 
  7.492095194576e-02 
  1.293700376560e-01 
  1.332894516473e-02 
  6.777803087492e-02 
  6.186024093894e-03 
  6.304885786563e-02 
  2.800624139863e-02 
 -7.036375068380e-03 
  1.255028317001e-01 
  9.046021523308e-02 
  1.879568055345e-01 
  5.752475078006e-02 
  2.591313793091e-02 
 -5.698474918245e-03 
  2.685314019730e-02 
 -4.758472651850e-03 
 -3.818470385455e-03 
  1.923092606262e-01 
  9.627166642929e-02 
  2.340722324020e-04 
  2.472371153831e-01 
  1.511995211862e-01 
  3.021649701400e-01 
  4.660901208339e-01 
  3.824730585886e-01 
  2.988559963434e-01 
  2.301710325344e-01 
  1.465539702891e-01 
 -5.748055765130e-03 
  4.823369460305e-01 
  5.390385219904e-01 
  5.957400979503e-01 
  4.803437425052e-01 
  5.370453184651e-01 
  4.783505389798e-01 
  4.730148555769e-01 
  4.783880848742e-01 
  4.837613141715e-01 
  3.900825445673e-01 
  3.954557738646e-01 
  3.071502335578e-01 
  2.743752755477e-03 
  9.669032661903e-02 
  1.906369004826e-01 
 -5.105466338112e-04 
  9.343602722974e-02 
 -3.764846023099e-03 
  3.613773999647e-01 
  2.764149842341e-01 
  1.914525685035e-01 
  3.357333771508e-01 
  2.507709614202e-01 
  3.100893543368e-01 
 -1.711537237482e-03 
  5.289360476469e-03 
  1.229025819042e-02 
  2.343676809904e-01 
  2.413685787044e-01 
  4.704468992183e-01 
  4.893108681666e-01 
  2.503222495221e-01 
  1.133363087772e-02 
  4.880686722933e-01 
  2.490800536488e-01 
  4.868264764200e-01 
  2.773390504219e-01 
  2.019659516704e-01 
  1.265928529189e-01 
  4.197714708976e-01 
  3.443983721461e-01 
  5.622038913733e-01 
  2.387953444027e-01 
  1.210467137088e-01 
  3.298083014951e-03 
  2.124982746361e-01 
  9.474964394216e-02 
  1.862012048694e-01 
  6.769035747437e-01 
  3.412412659234e-01 
  5.578957103181e-03 
  3.475446327438e-01 
  1.188232392349e-02 
  1.818569074381e-02 
  6.553917952950e-01 
  3.275075738295e-01 
 -3.766476359983e-04 
  3.368587381421e-01 
  8.974516676616e-03 
  1.832568098923e-02 
  4.385798180942e-01 
  2.246839402977e-01 
  1.078806250120e-02 
  4.062913440563e-01 
  1.923954662598e-01 
  3.740028700185e-01 
  4.630138070712e-01 
  2.338085895526e-01 
  4.603372033976e-03 
  5.495974676092e-01 
  3.203922500906e-01 
  6.361811281473e-01 
  5.287344078013e-01 
  4.977296900402e-01 
  4.667249722792e-01 
  4.742359328358e-01 
  4.432312150748e-01 
  4.197374578704e-01 
  7.247289917847e-01 
  3.661338120163e-01 
  7.538632247931e-03 
  3.625864096539e-01 
  3.991229885483e-03 
  4.438275230353e-04 
  5.909812091889e-01 
  6.169424676883e-01 
  6.429037261878e-01 
  6.458147562005e-01 
  6.717760146999e-01 
  7.006483032121e-01 
  6.333714262989e-01 
  6.159859973132e-01 
  5.986005683275e-01 
  5.532581077657e-01 
  5.358726787800e-01 
  4.731447892325e-01 
  5.521410295099e-01 
  4.756045025824e-01 
  3.990679756548e-01 
  5.422809206786e-01 
  4.657443937510e-01 
  5.324208118473e-01 
  4.029445179344e-01 
  4.227747748981e-01 
  4.426050318619e-01 
  4.670723109650e-01 
  4.869025679288e-01 
  5.312001039957e-01 
  5.405165223931e-01 
  5.355645697045e-01 
  5.306126170159e-01 
  6.198460888212e-01 
  6.148941361326e-01 
  6.991756552493e-01 
  6.998464462581e-01 
  7.407727793902e-01 
  7.816991125222e-01 
  6.188789307887e-01 
  6.598052639208e-01 
  5.379114153194e-01 
  7.010805606638e-01 
  6.766387932260e-01 
  6.521970257883e-01 
  7.127889881597e-01 
  6.883472207219e-01 
  7.244974156555e-01 
  5.849429152916e-01 
  6.394771912127e-01 
  6.940114671339e-01 
  5.580250795653e-01 
  6.125593554865e-01 
  5.311072438391e-01 
  7.189981881834e-01 
  7.031368328695e-01 
  6.872754775555e-01 
  7.558191804925e-01 
  7.399578251785e-01 
  7.926401728015e-01 
  7.228849761254e-01 
  6.968006683419e-01 
  6.707163605583e-01 
  3.752608297821e-01 
  3.491765219985e-01 
  2.763668343881e-02 
  5.691801100333e-01 
  6.780388708104e-01 
  7.868976315874e-01 
  6.953357308855e-01 
  8.041944916625e-01 
  8.214913517377e-01 
  7.864155816561e-01 
  6.754438541879e-01 
  5.644721267198e-01 
  6.601881639477e-01 
  5.492164364795e-01 
  5.339607462393e-01 
  4.640308196841e-01 
  5.097365371487e-01 
  5.554422546133e-01 
  5.378266339796e-01 
  5.835323514442e-01 
  6.116224482751e-01 
  5.545439310220e-01 
  5.088699441667e-01 
  4.631959573114e-01 
  4.744130678833e-01 
  4.287390810280e-01 
  3.942822047446e-01 
  8.033908261070e-01 
  7.985726148762e-01 
  7.937544036453e-01 
  7.427211088546e-01 
  7.379028976238e-01 
  6.820513916022e-01 
  7.224179673297e-01 
  7.516197646345e-01 
  7.808215619394e-01 
  7.111101794758e-01 
  7.403119767807e-01 
  6.998023916220e-01 
  1.141657168432e-02 
  3.491303884783e-01 
  6.868442052722e-01 
  3.653882869637e-01 
  7.031021037576e-01 
  7.193600022430e-01 