# vtk DataFile Version 2
NuDG++ 2D simulation
ASCII
DATASET UNSTRUCTURED_GRID

POINTS 2244 double
 -1.656250060000e-01  -2.000000030000e-01  0.0
 -1.828125045000e-01  -1.772221997500e-01  0.0
 -2.000000030000e-01  -1.544443965000e-01  0.0
 -1.828125045000e-01  -2.000000030000e-01  0.0
 -2.000000030000e-01  -1.772221997500e-01  0.0
 -2.000000030000e-01  -2.000000030000e-01  0.0
 -6.428571790000e-02  -1.700000018000e-01  0.0
 -8.058035746000e-02  -1.850000024000e-01  0.0
 -9.687499702000e-02  -2.000000030000e-01  0.0
 -6.339285895000e-02  -1.850000024000e-01  0.0
 -7.968749851000e-02  -2.000000030000e-01  0.0
 -6.250000000000e-02  -2.000000030000e-01  0.0
 -2.000000030000e-01  -1.544443965000e-01  0.0
 -1.750000045000e-01  -1.379364989500e-01  0.0
 -1.500000060000e-01  -1.214286014000e-01  0.0
 -2.000000030000e-01  -1.316666491500e-01  0.0
 -1.750000045000e-01  -1.151587516000e-01  0.0
 -2.000000030000e-01  -1.088889018000e-01  0.0
 -1.500000060000e-01  -1.214286014000e-01  0.0
 -1.750000045000e-01  -1.379364989500e-01  0.0
 -2.000000030000e-01  -1.544443965000e-01  0.0
 -1.500000060000e-01  -1.457143016000e-01  0.0
 -1.750000045000e-01  -1.622221991500e-01  0.0
 -1.500000060000e-01  -1.700000018000e-01  0.0
 -1.500000060000e-01  -7.285714149000e-02  0.0
 -1.750000045000e-01  -9.087302164500e-02  0.0
 -2.000000030000e-01  -1.088889018000e-01  0.0
 -1.500000060000e-01  -9.714287144500e-02  0.0
 -1.750000045000e-01  -1.151587516000e-01  0.0
 -1.500000060000e-01  -1.214286014000e-01  0.0
  1.832975030000e+00  -4.625000060000e-02  0.0
  1.853987515000e+00  -1.231250018000e-01  0.0
  1.875000000000e+00  -2.000000030000e-01  0.0
  1.916487515000e+00  -7.187499851000e-02  0.0
  1.937500000000e+00  -1.487499997100e-01  0.0
  2.000000000000e+00  -9.749999642000e-02  0.0
 -1.500000060000e-01  -1.700000018000e-01  0.0
 -1.360000037000e-01  -1.525000036000e-01  0.0
 -1.220000014000e-01  -1.350000054000e-01  0.0
 -1.500000060000e-01  -1.457143016000e-01  0.0
 -1.360000037000e-01  -1.282143034000e-01  0.0
 -1.500000060000e-01  -1.214286014000e-01  0.0
  2.849999964000e-01  -2.333333530000e-02  0.0
  2.837499976000e-01  -8.166666795000e-02  0.0
  2.824999988000e-01  -1.400000006000e-01  0.0
  3.174999952000e-01  -4.666666780000e-02  0.0
  3.162499964000e-01  -1.050000004500e-01  0.0
  3.499999940000e-01  -7.000000030000e-02  0.0
 -1.071429029000e-01  -1.700000018000e-01  0.0
 -8.571431040000e-02  -1.700000018000e-01  0.0
 -6.428571790000e-02  -1.700000018000e-01  0.0
 -9.857145324000e-02  -1.525000036000e-01  0.0
 -7.714286074000e-02  -1.525000036000e-01  0.0
 -9.000000358000e-02  -1.350000054000e-01  0.0
 -1.312499940000e-01  -2.000000030000e-01  0.0
 -1.191964484500e-01  -1.850000024000e-01  0.0
 -1.071429029000e-01  -1.700000018000e-01  0.0
 -1.406250000000e-01  -1.850000024000e-01  0.0
 -1.285714544500e-01  -1.700000018000e-01  0.0
 -1.500000060000e-01  -1.700000018000e-01  0.0
 -1.220000014000e-01  -1.350000054000e-01  0.0
 -1.060000024900e-01  -1.350000054000e-01  0.0
 -9.000000358000e-02  -1.350000054000e-01  0.0
 -1.185000017500e-01  -1.175000034500e-01  0.0
 -1.025000028400e-01  -1.175000034500e-01  0.0
 -1.150000021000e-01  -1.000000015000e-01  0.0
 -9.000000358000e-02  -1.350000054000e-01  0.0
 -1.060000024900e-01  -1.350000054000e-01  0.0
 -1.220000014000e-01  -1.350000054000e-01  0.0
 -9.857145324000e-02  -1.525000036000e-01  0.0
 -1.145714521500e-01  -1.525000036000e-01  0.0
 -1.071429029000e-01  -1.700000018000e-01  0.0
 -7.778175920000e-02  -9.192386270000e-02  0.0
 -9.639088065000e-02  -9.596193210000e-02  0.0
 -1.150000021000e-01  -1.000000015000e-01  0.0
 -8.389088139000e-02  -1.134619340500e-01  0.0
 -1.025000028400e-01  -1.175000034500e-01  0.0
 -9.000000358000e-02  -1.350000054000e-01  0.0
 -1.220000014000e-01  -1.350000054000e-01  0.0
 -1.185000017500e-01  -1.175000034500e-01  0.0
 -1.150000021000e-01  -1.000000015000e-01  0.0
 -1.360000037000e-01  -1.282143034000e-01  0.0
 -1.325000040500e-01  -1.107143014500e-01  0.0
 -1.500000060000e-01  -1.214286014000e-01  0.0
 -7.778175920000e-02  -9.192386270000e-02  0.0
 -8.389088139000e-02  -1.134619340500e-01  0.0
 -9.000000358000e-02  -1.350000054000e-01  0.0
 -6.639088876500e-02  -1.022535823500e-01  0.0
 -7.250001095500e-02  -1.237916537000e-01  0.0
 -5.500001833000e-02  -1.125833020000e-01  0.0
 -1.071429029000e-01  -1.700000018000e-01  0.0
 -1.145714521500e-01  -1.525000036000e-01  0.0
 -1.220000014000e-01  -1.350000054000e-01  0.0
 -1.285714544500e-01  -1.700000018000e-01  0.0
 -1.360000037000e-01  -1.525000036000e-01  0.0
 -1.500000060000e-01  -1.700000018000e-01  0.0
  6.250000093000e-03  -2.000000030000e-01  0.0
  4.062500153650e-02  -2.000000030000e-01  0.0
  7.500000298000e-02  -2.000000030000e-01  0.0
  1.383928512150e-02  -1.850000024000e-01  0.0
  4.821428656500e-02  -1.850000024000e-01  0.0
  2.142857015000e-02  -1.700000018000e-01  0.0
 -1.500000060000e-01  -7.285714149000e-02  0.0
 -1.500000060000e-01  -9.714287144500e-02  0.0
 -1.500000060000e-01  -1.214286014000e-01  0.0
 -1.325000040500e-01  -8.642857149500e-02  0.0
 -1.325000040500e-01  -1.107143014500e-01  0.0
 -1.150000021000e-01  -1.000000015000e-01  0.0
 -2.000000030000e-01  -6.333333254000e-02  0.0
 -1.750000045000e-01  -6.809523701500e-02  0.0
 -1.500000060000e-01  -7.285714149000e-02  0.0
 -1.750000045000e-01  -4.380952660000e-02  0.0
 -1.500000060000e-01  -4.857143107500e-02  0.0
 -1.500000060000e-01  -2.428572066000e-02  0.0
 -2.000000030000e-01  -6.333333254000e-02  0.0
 -2.000000030000e-01  -8.611111717000e-02  0.0
 -2.000000030000e-01  -1.088889018000e-01  0.0
 -1.750000045000e-01  -6.809523701500e-02  0.0
 -1.750000045000e-01  -9.087302164500e-02  0.0
 -1.500000060000e-01  -7.285714149000e-02  0.0
 -2.000000030000e-01  -6.333333254000e-02  0.0
 -1.750000045000e-01  -4.380952660000e-02  0.0
 -1.500000060000e-01  -2.428572066000e-02  0.0
 -2.000000030000e-01  -4.055555630500e-02  0.0
 -1.750000045000e-01  -2.103175036500e-02  0.0
 -2.000000030000e-01  -1.777778007000e-02  0.0
 -1.500000060000e-01  -2.428572066000e-02  0.0
 -1.500000060000e-01  -4.857143107500e-02  0.0
 -1.500000060000e-01  -7.285714149000e-02  0.0
 -1.281259023000e-01  -2.896608505500e-02  0.0
 -1.281259023000e-01  -5.325179547000e-02  0.0
 -1.062517986000e-01  -3.364644945000e-02  0.0
 -1.099999994000e-01   1.996667010000e-08  0.0
 -1.300000027000e-01  -1.214285034666e-02  0.0
 -1.500000060000e-01  -2.428572066000e-02  0.0
 -1.081258990000e-01  -1.682321474166e-02  0.0
 -1.281259023000e-01  -2.896608505500e-02  0.0
 -1.062517986000e-01  -3.364644945000e-02  0.0
 -1.500000060000e-01  -2.428572066000e-02  0.0
 -1.500000060000e-01   0.000000000000e+00  0.0
 -1.500000060000e-01   2.428572066000e-02  0.0
 -1.750000045000e-01  -2.103175036500e-02  0.0
 -1.750000045000e-01   3.253970295000e-03  0.0
 -2.000000030000e-01  -1.777778007000e-02  0.0
 -1.500000060000e-01  -7.285714149000e-02  0.0
 -1.226314045700e-01  -6.892856210000e-02  0.0
 -9.526280314000e-02  -6.499998271000e-02  0.0
 -1.281259023000e-01  -5.325179547000e-02  0.0
 -1.007573008700e-01  -4.932321608000e-02  0.0
 -1.062517986000e-01  -3.364644945000e-02  0.0
  3.499999940000e-01   1.400000006000e-01  0.0
  4.021931737500e-01   1.224999986500e-01  0.0
  4.543863535000e-01   1.049999967000e-01  0.0
  4.187500029500e-01   1.749999970000e-01  0.0
  4.709431827000e-01   1.574999950500e-01  0.0
  4.875000119000e-01   2.099999934000e-01  0.0
 -7.101409137000e-02  -4.349999130000e-02  0.0
 -8.313844725500e-02  -5.424998700500e-02  0.0
 -9.526280314000e-02  -6.499998271000e-02  0.0
 -6.449843011500e-02  -5.250913650000e-02  0.0
 -7.662278600000e-02  -6.325913220500e-02  0.0
 -5.798276886000e-02  -6.151828170000e-02  0.0
 -9.526280314000e-02  -6.499998271000e-02  0.0
 -1.226314045700e-01  -6.892856210000e-02  0.0
 -1.500000060000e-01  -7.285714149000e-02  0.0
 -1.051314026200e-01  -8.249999210500e-02  0.0
 -1.325000040500e-01  -8.642857149500e-02  0.0
 -1.150000021000e-01  -1.000000015000e-01  0.0
 -6.181925908000e-02  -1.656441018000e-02  0.0
 -7.051259093000e-02  -1.954082492500e-02  0.0
 -7.920592278000e-02  -2.251723967000e-02  0.0
 -5.862244405000e-02  -2.428220026000e-02  0.0
 -6.731577590000e-02  -2.725861500500e-02  0.0
 -5.542562902000e-02  -3.199999034000e-02  0.0
 -7.920592278000e-02  -2.251723967000e-02  0.0
 -9.272886069000e-02  -2.808184456000e-02  0.0
 -1.062517986000e-01  -3.364644945000e-02  0.0
 -7.511000707500e-02  -3.300861548500e-02  0.0
 -8.863294498500e-02  -3.857322037500e-02  0.0
 -7.101409137000e-02  -4.349999130000e-02  0.0
 -7.101409137000e-02  -4.349999130000e-02  0.0
 -6.321986019500e-02  -3.774999082000e-02  0.0
 -5.542562902000e-02  -3.199999034000e-02  0.0
 -7.511000707500e-02  -3.300861548500e-02  0.0
 -6.731577590000e-02  -2.725861500500e-02  0.0
 -7.920592278000e-02  -2.251723967000e-02  0.0
 -7.920592278000e-02  -2.251723967000e-02  0.0
 -9.460296109000e-02  -1.125860985166e-02  0.0
 -1.099999994000e-01   1.996667010000e-08  0.0
 -9.272886069000e-02  -2.808184456000e-02  0.0
 -1.081258990000e-01  -1.682321474166e-02  0.0
 -1.062517986000e-01  -3.364644945000e-02  0.0
 -7.778175920000e-02  -9.192386270000e-02  0.0
 -6.788226403000e-02  -7.672107220000e-02  0.0
 -5.798276886000e-02  -6.151828170000e-02  0.0
 -8.652228117000e-02  -7.846192270500e-02  0.0
 -7.662278600000e-02  -6.325913220500e-02  0.0
 -9.526280314000e-02  -6.499998271000e-02  0.0
 -7.101409137000e-02  -4.349999130000e-02  0.0
 -8.863294498500e-02  -3.857322037500e-02  0.0
 -1.062517986000e-01  -3.364644945000e-02  0.0
 -8.313844725500e-02  -5.424998700500e-02  0.0
 -1.007573008700e-01  -4.932321608000e-02  0.0
 -9.526280314000e-02  -6.499998271000e-02  0.0
 -7.778175920000e-02  -9.192386270000e-02  0.0
 -8.652228117000e-02  -7.846192270500e-02  0.0
 -9.526280314000e-02  -6.499998271000e-02  0.0
 -9.639088065000e-02  -9.596193210000e-02  0.0
 -1.051314026200e-01  -8.249999210500e-02  0.0
 -1.150000021000e-01  -1.000000015000e-01  0.0
[...]
POINT_DATA 2244
SCALARS field1 double 1
LOOKUP_TABLE default
  3.102331763716e-03 
  1.419776699221e-01 
  2.808530080805e-01 
  1.318047033220e-03 
  1.401933851916e-01 
 -4.662376972766e-04 
  3.910400772307e-01 
  1.939895035543e-01 
 -3.061070122045e-03 
  1.967725072931e-01 
 -2.780663832468e-04 
  2.504937355551e-03 
  2.779098896859e-01 
  3.596338418658e-01 
  4.413577940456e-01 
  3.833581499199e-01 
  4.650821020998e-01 
  4.888064101540e-01 
  4.421115770275e-01 
  3.599467893782e-01 
  2.777820017290e-01 
  3.307391169124e-01 
  2.485743292632e-01 
  2.193666567974e-01 
  6.072288440584e-01 
  5.482741075704e-01 
  4.893193710824e-01 
  5.270369139561e-01 
  4.680821774681e-01 
  4.468449838538e-01 
 -4.031275332915e+00 
 -6.715013059308e+00 
 -9.398750785700e+00 
 -6.603755572517e+00 
 -9.287493298909e+00 
 -9.176235812119e+00 
  2.202811253547e-01 
  3.168911238959e-01 
  4.135011224371e-01 
  3.316065167288e-01 
  4.282165152700e-01 
  4.429319081028e-01 
  5.802487226728e-01 
  5.555758021267e-01 
  5.309028815806e-01 
  5.882632498324e-01 
  5.635903292863e-01 
  5.962777769921e-01 
  2.913568075744e-01 
  3.419130788650e-01 
  3.924693501557e-01 
  3.784241208181e-01 
  4.289803921087e-01 
  4.654914340618e-01 
 -8.032722593954e-04 
  1.457407520276e-01 
  2.922847763146e-01 
  1.062331849674e-01 
  2.527772092544e-01 
  2.132696421942e-01 
  4.085826969417e-01 
  4.364407052442e-01 
  4.642987135466e-01 
  4.857340845456e-01 
  5.135920928480e-01 
  5.628854721494e-01 
  4.616818279893e-01 
  4.357377071165e-01 
  4.097935862437e-01 
  3.764795512550e-01 
  3.505354303822e-01 
  2.912772745208e-01 
  6.259845203918e-01 
  5.948485302826e-01 
  5.637125401733e-01 
  5.473526888240e-01 
  5.162166987148e-01 
  4.687208572562e-01 
  4.115927494785e-01 
  4.862352318433e-01 
  5.608777142081e-01 
  4.275089565502e-01 
  5.021514389150e-01 
  4.434251636219e-01 
  6.262708829725e-01 
  5.465739061043e-01 
  4.668769292361e-01 
  6.284540006112e-01 
  5.487570237430e-01 
  6.306371182498e-01 
  2.905603219911e-01 
  3.521264549402e-01 
  4.136925878893e-01 
  2.544433220929e-01 
  3.160094550420e-01 
  2.183263221948e-01 
  1.571433367232e-03 
  4.789360827718e-03 
  8.007288288204e-03 
  2.842377059225e-01 
  2.874556333830e-01 
  5.669039784779e-01 
  6.069486183132e-01 
  5.255084686666e-01 
  4.440683190199e-01 
  5.833481436534e-01 
  5.019079940067e-01 
  5.597476689935e-01 
  6.301408696787e-01 
  6.165955025757e-01 
  6.030501354726e-01 
  6.481258069639e-01 
  6.345804398608e-01 
  6.661107442491e-01 
  6.284891518572e-01 
  5.588301753741e-01 
  4.891711988910e-01 
  6.162212042660e-01 
  5.465622277830e-01 
  6.039532566749e-01 
  6.319485876820e-01 
  6.492433496959e-01 
  6.665381117097e-01 
  6.664712980339e-01 
  6.837660600478e-01 
  7.009940083858e-01 
  6.665221613373e-01 
  6.377585891186e-01 
  6.089950169000e-01 
  6.268750036710e-01 
  5.981114314524e-01 
  5.872278460048e-01 
  5.573532391927e-01 
  6.121437543171e-01 
  6.669342694416e-01 
  5.677888191181e-01 
  6.225793342426e-01 
  5.782243990435e-01 
  6.601204096218e-01 
  6.689395617898e-01 
  6.777587139577e-01 
  6.810683009262e-01 
  6.898874530941e-01 
  7.020161922305e-01 
  6.079996230393e-01 
  5.952685444488e-01 
  5.825374658583e-01 
  5.963711587372e-01 
  5.836400801467e-01 
  5.847426944351e-01 
  4.966643708283e-01 
  5.421169317010e-01 
  5.875694925736e-01 
  2.503560338608e-01 
  2.958085947335e-01 
  4.047696893393e-03 
  5.463066432610e-01 
  5.680333121423e-01 
  5.897599810236e-01 
  6.069938391510e-01 
  6.287205080323e-01 
  6.676810350410e-01 
  5.863697039272e-01 
  5.971262800567e-01 
  6.078828561861e-01 
  5.761608089504e-01 
  5.869173850798e-01 
  5.659519139736e-01 
  2.179106539196e-01 
  3.227074093516e-01 
  4.275041647836e-01 
  2.909185693485e-01 
  3.957153247805e-01 
  3.639264847774e-01 
  4.079112244236e-01 
  4.910955363757e-01 
  5.742798483278e-01 
  4.772147491599e-01 
  5.603990611120e-01 
  5.465182738962e-01 
  5.514949656657e-01 
  4.633011480506e-01 
  3.751073304354e-01 
  4.858666183569e-01 
  3.976728007417e-01 
  4.202382710480e-01 
  4.075510907584e-01 
  4.794705440083e-01 
  5.513899972581e-01 
  4.925455903779e-01 
  5.644650436278e-01 
  5.775400899974e-01 
  6.251471631995e-01 
  6.493018507906e-01 
  6.734565383816e-01 
  6.066760186906e-01 
  6.308307062817e-01 
  5.882048741817e-01 
  5.498603377993e-01 
  5.648213022892e-01 
  5.797822667792e-01 
  5.717700669367e-01 
  5.867310314266e-01 
  5.936797960740e-01 
  6.189550785701e-01 
  6.017400268635e-01 
  5.845249751569e-01 
  5.915016143330e-01 
  5.742865626264e-01 
  5.640481500958e-01 
  4.212348436696e-01 
  3.251279800509e-01 
  2.290211164322e-01 
  4.081014435543e-01 
  3.119945799356e-01 
  3.949680434390e-01 
  6.301903422872e-01 
  5.480557737028e-01 
  4.659212051185e-01 
  5.117949107105e-01 
  4.296603421261e-01 
  3.933994791338e-01 
 -5.286714033445e+00 
 -4.891258985027e+00 
 -4.495803936609e+00 
 -6.383308562211e+00 
 -5.987853513792e+00 
 -7.479903090976e+00 
  6.459601512735e-01 
  5.731802672001e-01 
  5.004003831267e-01 
  6.742935280536e-01 
  6.015136439801e-01 
  7.026269048336e-01 
  6.428421174738e-01 
  6.354514383194e-01 
  6.280607591650e-01 
  5.186652371392e-01 
  5.112745579848e-01 
  3.944883568045e-01 
  6.212823056473e-01 
  7.043799769897e-01 
  7.874776483320e-01 
  6.463212964412e-01 
  7.294189677835e-01 
  6.713602872350e-01 
  7.916644259194e-01 
  7.074911873548e-01 
  6.233179487902e-01 
  7.161759209381e-01 
  6.320026823735e-01 
  6.406874159568e-01 
  8.984197224019e-01 
  8.463219178798e-01 
  7.942241133577e-01 
  7.663220634967e-01 
  7.142242589747e-01 
  6.342244045916e-01 
  8.117918861645e-01 
  7.414377702200e-01 
  6.710836542755e-01 
  8.075366357076e-01 
  7.371825197630e-01 
  8.032813852506e-01 
  6.304855090637e-01 
  6.413148574363e-01 
  6.521442058088e-01 
  7.669954429251e-01 
  7.778247912977e-01 
  9.035053767865e-01 
  6.456998940328e-01 
  5.212684549931e-01 
  3.968370159533e-01 
  5.729096262432e-01 
  4.484781872034e-01 
  5.001193584535e-01 
  9.665358869629e-01 
  9.369426786771e-01 
  9.073494703914e-01 
  8.107190363447e-01 
  7.811258280589e-01 
  6.549021857265e-01 
 -2.056735857902e-03 
  4.033686160456e-01 
  8.087939679491e-01 
 -8.783937462234e-03 
  3.966414144413e-01 
 -1.551113906657e-02 
  9.281931600256e-01 
  8.922434521656e-01 
  8.562937443056e-01 
  9.106592028431e-01 
  8.747094949831e-01 
  8.931252456606e-01 
  8.511242021569e-01 
  8.891876063163e-01 
  9.272510104756e-01 
  8.977718957360e-01 
  9.358352998954e-01 
  9.444195893151e-01 
  8.887500933320e-01 
  8.651530430878e-01 
  8.415559928435e-01 
  4.516328264353e-01 
  4.280357761910e-01 
  1.451555953851e-02 
  9.065802561651e-01 
  9.022115991820e-01 
  8.978429421989e-01 
  8.555151601048e-01 
  8.511465031217e-01 
  8.044500640446e-01 
  9.075741742894e-01 
  8.657487331693e-01 
  8.239232920492e-01 
  9.306188673868e-01 
  8.887934262667e-01 
  9.536635604842e-01 
  9.695102701695e-01 
  8.121011419664e-01 
  6.546920137634e-01 
  8.374716069861e-01 
  6.800624787830e-01 
  7.054329438026e-01 
  5.019382286647e-01 
  5.267923208124e-01 
  5.516464129602e-01 
  6.031838107210e-01 
  6.280379028687e-01 
  7.044293927773e-01 
  8.073856333168e-01 
  8.105800724392e-01 
  8.137745115616e-01 
  8.495090186644e-01 
  8.527034577868e-01 
  8.916324040120e-01 
 -9.197414366084e-04 
  1.900705205856e-01 
  3.810607826078e-01 
  9.727022996694e-03 
  2.007172850189e-01 
  2.037378743000e-02 
  3.740488444366e-01 
  4.589926505818e-01 
  5.439364567269e-01 
  4.859652066714e-01 
  5.709090128166e-01 
  5.978815689062e-01 
  5.073393163833e-01 
  2.538426162890e-01 
  3.459161947183e-04 
  2.570098110745e-01 
  3.513110980204e-03 
  6.680305765689e-03 
 -1.822316164047e-02 
  3.333375940090e-02 
  8.489068044227e-02 
  9.840711491471e-02 
  1.499640359561e-01 
  2.150373914699e-01 
  9.919705269914e-03 
 -3.563970811353e-03 
 -1.704764689262e-02 
  1.839841324607e-01 
  1.705004563795e-01 
  3.580485596515e-01 
  3.392576697986e-01 
  1.704442567816e-01 
  1.630843764526e-03 
  3.061173264244e-01 
  1.373039134074e-01 
  2.729769830502e-01 
  3.767717228813e-01 
  4.955351964252e-01 
  6.142986699690e-01 
  2.022886214669e-01 
  3.210520950108e-01 
  2.780552005255e-02 
 -2.468071276032e-02 
  9.145026199774e-02 
  2.075812367558e-01 
  1.650778993337e-01 
  2.812088740917e-01 
  3.548365114277e-01 
  8.318418578622e-03 
  9.573397665917e-03 
  1.082837675321e-02 
  4.498285978520e-01 
  4.510835769393e-01 
  8.913387771253e-01 
  1.445936519824e-02 
  4.276288426330e-01 
  8.407983200677e-01 
  7.446846966790e-03 
  4.206163244015e-01 
  4.343287353424e-04 
  5.401878562418e-01 
  2.686569211850e-01 
 -2.874013871826e-03 
  4.905698551316e-01 
  2.190389200748e-01 
  4.409518540214e-01 
  7.203695583461e-03 
  3.280802631271e-01 
  6.489568306707e-01 
  2.003512755103e-02 
  3.409116950946e-01 
  3.286655951860e-02 
  2.389447045281e-02 
  4.146166349921e-01 
  8.053387995315e-01 
  4.519845334824e-01 
  8.427066980217e-01 
  8.800745965120e-01 
  5.023578939507e-01 
  2.559876575529e-01 
  9.617421155120e-03 
  5.260811603897e-01 
  2.797109239918e-01 
  5.498044268286e-01 
  2.973782082497e-01 
  1.493478030766e-01 
  1.317397903582e-03 
  1.508730066120e-01 
  2.842601438953e-03 
  4.367804974324e-03 
  4.682367633961e-02 
  3.428050366189e-01 
  6.387863968981e-01 
  4.248969425307e-01 
  7.208783028099e-01 
  8.029702087217e-01 
  6.118527749863e-01 
  6.420412348044e-01 
  6.722296946224e-01 
  7.091563250941e-01 
  7.393447849121e-01 
  8.064598752018e-01 
  4.023144791796e-01 
  2.056169675166e-01 
  8.919455853577e-03 
  4.470260505601e-01 
  2.503285388971e-01 
  4.917376219407e-01 
  9.685737273262e-01 
  8.347674737420e-01 
  7.009612201577e-01 
  8.705961111071e-01 
  7.367898575229e-01 
  7.726184948881e-01 
  6.031221089695e-01 
  5.726393147409e-01 
  5.421565205124e-01 
  6.395045714884e-01 
  6.090217772599e-01 
  6.758870340073e-01 
  2.313205679345e-03 
  5.746271007612e-03 
  9.179336335880e-03 
  2.042562758112e-01 
  2.076893411395e-01 
  4.061993459431e-01 
  7.404057991057e-02 
  3.286173967883e-02 
 -8.317100552904e-03 
  3.419381222727e-02 
 -6.985028004468e-03 
 -5.652955456031e-03 
  6.378608790183e-01 
  6.567891439357e-01 
  6.757174088531e-01 
  6.201773012367e-01 
  6.391055661541e-01 
  6.024937234551e-01 
  6.783806442864e-01 
  6.885476722268e-01 
  6.987147001672e-01 
  6.906724485496e-01 
  7.008394764900e-01 
  7.029642528128e-01 
  6.979434486360e-01 
  6.644893347615e-01 
  6.310352208869e-01 
  6.632574823883e-01 
  6.298033685138e-01 
  6.285715161406e-01 
  6.321496257771e-01 
  6.644095321203e-01 
  6.966694384635e-01 
  6.530487988937e-01 
  6.853087052369e-01 
  6.739479720102e-01 
  6.277007596587e-01 
  6.299619929710e-01 
  6.322232262833e-01 
  5.589434706283e-01 
  5.612047039406e-01 
  4.901861815978e-01 
 -6.211511256552e+00 
 -4.145716870036e+00 
 -2.079922483520e+00 
 -9.424779228841e+00 
 -7.358984842325e+00 
 -1.263804720113e+01 
  6.791294329680e-01 
  6.196103910835e-01 
  5.600913491990e-01 
  6.364117537077e-01 
  5.768927118232e-01 
  5.936940744474e-01 
  6.794756220838e-01 
  6.717723818885e-01 
  6.640691416933e-01 
  6.222980774656e-01 
  6.145948372704e-01 
  5.651205328475e-01 
  4.223061632094e-01 
  5.084093418822e-01 
  5.945125205549e-01 
  4.887541215518e-01 
  5.748573002245e-01 
  5.552020798941e-01 
  5.669950772449e-01 
  4.985028684270e-01 
  4.300106596091e-01 
  4.768824538272e-01 
  4.083902450094e-01 
  3.867698304096e-01 
  5.934575110287e-01 
  5.730168792006e-01 
  5.525762473725e-01 
  5.988206597021e-01 
  5.783800278740e-01 
  6.041838083755e-01 
  5.525994978868e-01 
  5.704961453023e-01 
  5.883927927178e-01 
  4.879917719464e-01 
  5.058884193619e-01 
  4.233840460060e-01 
  6.348940982279e-01 
  6.180906182034e-01 
  6.012871381788e-01 
  6.627083172961e-01 
  6.459048372716e-01 
  6.905225363643e-01 
  5.987279734632e-01 
  5.999245937222e-01 
  6.011212139812e-01 
  6.186537553766e-01 
  6.198503756355e-01 
  6.385795372899e-01 
  4.310375668631e-01 
  4.105018016835e-01 
  3.899660365040e-01 
  3.356663140328e-01 
  3.151305488533e-01 
  2.402950612025e-01 
  4.231880235344e-01 
  4.868951971209e-01 
  5.506023707074e-01 
  4.042430374582e-01 
  4.679502110448e-01 
  3.852980513821e-01 
  5.477637754170e-01 
  4.791890697417e-01 
  4.106143640664e-01 
  4.684558783926e-01 
  3.998811727173e-01 
  3.891479813682e-01 
  6.366635672592e-01 
  6.225214816195e-01 
  6.083793959798e-01 
  6.115825601308e-01 
  5.974404744911e-01 
  5.865015530024e-01 
  4.896140145376e-01 
  4.840179778003e-01 
  4.784219410631e-01 
  3.839185141652e-01 
  3.783224774280e-01 
  2.782230137928e-01 
  4.906981078524e-01 
  5.625187615915e-01 
  6.343394153306e-01 
  4.865141640043e-01 
  5.583348177434e-01 
  4.823302201563e-01 
  2.761845176033e-01 
  2.740279430758e-01 
  2.718713685483e-01 
  1.377692514834e-01 
  1.356126769559e-01 
 -6.460146364968e-04 
  2.746565167486e-01 
  2.758097641748e-01 
  2.769630116011e-01 
  3.768833058177e-01 
  3.780365532440e-01 
  4.791100948868e-01 
  3.478394802581e-01 
  1.756632029789e-01 
  3.486925699678e-03 
  1.741213573554e-01 
  1.945080076129e-03 
  4.032344525806e-04 
 -2.964466801776e-02 
 -3.113095453569e-02 
 -3.261724105362e-02 
  2.373377918097e-01 
  2.358515052918e-01 
  5.043202516372e-01 
  4.790789903318e-01 
  4.640426323923e-01 
  4.490062744527e-01 
  3.773946019912e-01 
  3.623582440516e-01 
  2.757102136505e-01 
  4.732138706009e-01 
  2.415143504499e-01 
  9.814830298929e-03 
  2.518654198382e-01 
  2.016589968718e-02 
  3.051696907542e-02 
  5.825070422584e-01 
  6.064129195701e-01 
  6.303187968818e-01 
  5.472442479050e-01 
  5.711501252167e-01 
  5.119814535515e-01 
  6.276725544036e-01 
  6.066563072270e-01 
  5.856400600504e-01 
  6.175184371471e-01 
  5.965021899705e-01 
  6.073643198906e-01 
  4.451991794333e-01 
  4.796909670362e-01 
  5.141827546390e-01 
  3.942738982465e-01 
  4.287656858494e-01 
  3.433486170598e-01 
  5.110127841698e-01 
  4.785682073806e-01 
  4.461236305915e-01 
  5.456556157772e-01 
  5.132110389881e-01 
  5.802984473847e-01 
  3.444967084994e-01 
  4.315543628189e-01 
  5.186120171383e-01 
  4.032462690073e-01 
  4.903039233267e-01 
  4.619958295152e-01 
  4.489199224009e-01 
  3.944657707031e-01 
  3.400116190053e-01 
  3.618743047992e-01 
  3.074201531014e-01 
  2.748286871975e-01 
  6.285024663647e-01 
  6.250988648241e-01 
  6.216952632836e-01 
  5.707907497992e-01 
  5.673871482587e-01 
  5.130790332337e-01 
  5.794885502758e-01 
  5.141648574288e-01 
  4.488411645818e-01 
  5.290867549328e-01 
  4.637630620858e-01 
  4.786849595899e-01 
  6.340849519434e-01 
  6.061692039993e-01 
  5.782534560551e-01 
  5.563921261297e-01 
  5.284763781856e-01 
  4.786993003160e-01 
  3.488110004400e-01 
  3.991309275968e-01 
  4.494508547536e-01 
  1.747235775127e-01 
  2.250435046695e-01 
  6.361545854295e-04 
  5.954994181133e-01 
  5.750840024728e-01 
  5.546685868323e-01 
  6.423089418854e-01 
  6.218935262449e-01 
  6.891184656576e-01 
 -8.031325194103e+00 
 -7.069492830840e+00 
 -6.107660467576e+00 
 -7.528344355395e+00 
 -6.566511992132e+00 
 -7.025363516687e+00 
  7.838070364747e-02 
  3.443150596684e-02 
 -9.517691713785e-03 
  1.554796347559e-01 
  1.115304370753e-01 
  2.325785658643e-01 
  7.165493448065e-02 
  3.250769013089e-02 
 -6.639554218877e-03 
  3.322061838269e-02 
 -5.926625967078e-03 
 -5.213697715279e-03 
  2.389806039988e-01 
  1.191517880955e-01 
 -6.770278076818e-04 
  3.031725687127e-01 
  1.833437528095e-01 
  3.673645334267e-01 
  5.702334289458e-01 
  4.656345912505e-01 
  3.610357535553e-01 
  2.810619420575e-01 
  1.764631043622e-01 
 -8.109544830821e-03 
  5.924467554916e-01 
  6.496375273446e-01 
  7.068282991975e-01 
  5.806162806364e-01 
  6.378070524893e-01 
  5.687858057811e-01 
  5.791170452412e-01 
  5.775479562321e-01 
  5.759788672229e-01 
  4.759887074606e-01 
  4.744196184514e-01 
  3.728603696799e-01 
  3.185197042562e-03 
  1.197288925597e-01 
  2.362725880769e-01 
 -8.226913456787e-04 
  1.157210041715e-01 
 -4.830579733920e-03 
  4.350922794417e-01 
  3.364744479307e-01 
  2.378566164196e-01 
  4.066865260146e-01 
  3.080686945035e-01 
  3.782807725874e-01 
 -2.034506507290e-03 
  7.639369074171e-03 
  1.731324465563e-02 
  2.873144851251e-01 
  2.969883607066e-01 
  5.766634767576e-01 
  5.619459582319e-01 
  2.877926483550e-01 
  1.363933847811e-02 
  5.595103265486e-01 
  2.853570166716e-01 
  5.570746948652e-01 
  2.800955794247e-01 
  1.389191639748e-01 
 -2.257251475072e-03 
  4.194828533090e-01 
  2.783064378591e-01 
  5.588701271932e-01 
  2.809492789110e-01 
  1.422842414094e-01 
  3.619203907755e-03 
  2.488705353180e-01 
  1.102054978164e-01 
  2.167917917250e-01 
  8.295982687557e-01 
  4.186457422403e-01 
  7.693215724902e-03 
  4.265462658053e-01 
  1.559373928994e-02 
  2.349426285497e-02 
  8.016969124558e-01 
  4.010462075424e-01 
  3.955026290018e-04 
  4.135017202111e-01 
  1.285101529769e-02 
  2.530652796638e-02 
  5.054180480693e-01 
  2.612349891673e-01 
  1.705193026531e-02 
  4.665106346318e-01 
  2.223275757298e-01 
  4.276032211942e-01 
  5.665779791944e-01 
  2.864116200932e-01 
  6.245260992003e-03 
  6.713704085362e-01 
  3.912040494350e-01 
  7.761628378780e-01 
  6.803199785980e-01 
  6.324077737293e-01 
  5.844955688605e-01 
  5.880530355742e-01 
  5.401408307055e-01 
  4.957860925505e-01 
  8.910833946608e-01 
  4.503900524277e-01 
  9.696710194735e-03 
  4.447363717843e-01 
  4.043029551314e-03 
 -1.610651092107e-03 
  7.006860883390e-01 
  7.438039512596e-01 
  7.869218141803e-01 
  7.657180742671e-01 
  8.088359371877e-01 
  8.307500601952e-01 
  7.738336312558e-01 
  7.423735734182e-01 
  7.109135155807e-01 
  6.770497794459e-01 
  6.455897216084e-01 
  5.802659276361e-01 
  6.430150543332e-01 
  5.523160526494e-01 
  4.616170509656e-01 
  6.331850253063e-01 
  5.424860236225e-01 
  6.233549962795e-01 
  4.649712241903e-01 
  4.908413079923e-01 
  5.167113917944e-01 
  5.436332738632e-01 
  5.695033576653e-01 
  6.222953235361e-01 
  6.339218283018e-01 
  6.309135002848e-01 
  6.279051722677e-01 
  7.307995703160e-01 
  7.277912422989e-01 
  8.276773123301e-01 
  8.289100858841e-01 
  8.769090237128e-01 
  9.249079615414e-01 
  7.292915289260e-01 
  7.772904667546e-01 
  6.296729719678e-01 
  8.319904705343e-01 
  8.149342150714e-01 
  7.978779596086e-01 
  8.630039115028e-01 
  8.459476560400e-01 
  8.940173524714e-01 
  6.905419684331e-01 
  7.557482411333e-01 
  8.209545138336e-01 
  6.590783882806e-01 
  7.242846609808e-01 
  6.276148081280e-01 
  8.858287771012e-01 
  8.717257991321e-01 
  8.576228211631e-01 
  9.128985902697e-01 
  8.987956123006e-01 
  9.399684034382e-01 
  8.907490127794e-01 
  8.565308239763e-01 
  8.223126351733e-01 
  4.629896511137e-01 
  4.287714623106e-01 
  3.523028944788e-02 
  6.616399404264e-01 
  7.968807888664e-01 
  9.321216373063e-01 
  8.171881287703e-01 
  9.524289772102e-01 
  9.727363171141e-01 
  9.310543757189e-01 
  7.937899704435e-01 
  6.565255651680e-01 
  7.779760871335e-01 
  6.407116818581e-01 
  6.248977985482e-01 
  5.355559831818e-01 
  5.907956414904e-01 
  6.460352997990e-01 
  6.230156139342e-01 
  6.782552722428e-01 
  7.104752446866e-01 
  6.458190880246e-01 
  5.900651026611e-01 
  5.343111172976e-01 
  5.508912079611e-01 
  4.951372225976e-01 
  4.559633278977e-01 
  9.494499394263e-01 
  9.453136211201e-01 
  9.411773028139e-01 
  9.005586647027e-01 
  8.964223463965e-01 
  8.516673899791e-01 
  8.916886780525e-01 
  9.081719474121e-01 
  9.246552167716e-01 
  8.611557184488e-01 
  8.776389878083e-01 
  8.306227588451e-01 
  1.180608757698e-02 
  4.345397870323e-01 
  8.572734864876e-01 
  4.480796608344e-01 
  8.708133602897e-01 
  8.843532340918e-01 