# vtk DataFile Version 2
NuDG++ 2D simulation
ASCII
DATASET UNSTRUCTURED_GRID

POINTS 2244 double
 -1.656250060000e-01  -2.000000030000e-01  0.0
 -1.828125045000e-01  -1.772221997500e-01  0.0
 -2.000000030000e-01  -1.544443965000e-01  0.0
 -1.828125045000e-01  -2.000000030000e-01  0.0
 -2.000000030000e-01  -1.772221997500e-01  0.0
 -2.000000030000e-01  -2.000000030000e-01  0.0
 -6.428571790000e-02  -1.700000018000e-01  0.0
 -8.058035746000e-02  -1.850000024000e-01  0.0
 -9.687499702000e-02  -2.000000030000e-01  0.0
 -6.339285895000e-02  -1.850000024000e-01  0.0
 -7.968749851000e-02  -2.000000030000e-01  0.0
 -6.250000000000e-02  -2.000000030000e-01  0.0
 -2.000000030000e-01  -1.544443965000e-01  0.0
 -1.750000045000e-01  -1.379364989500e-01  0.0
 -1.500000060000e-01  -1.214286014000e-01  0.0
 -2.000000030000e-01  -1.316666491500e-01  0.0
 -1.750000045000e-01  -1.151587516000e-01  0.0
 -2.000000030000e-01  -1.088889018000e-01  0.0
 -1.500000060000e-01  -1.214286014000e-01  0.0
 -1.750000045000e-01  -1.379364989500e-01  0.0
 -2.000000030000e-01  -1.544443965000e-01  0.0
 -1.500000060000e-01  -1.457143016000e-01  0.0
 -1.750000045000e-01  -1.622221991500e-01  0.0
 -1.500000060000e-01  -1.700000018000e-01  0.0
 -1.500000060000e-01  -7.285714149000e-02  0.0
 -1.750000045000e-01  -9.087302164500e-02  0.0
 -2.000000030000e-01  -1.088889018000e-01  0.0
 -1.500000060000e-01  -9.714287144500e-02  0.0
 -1.750000045000e-01  -1.151587516000e-01  0.0
 -1.500000060000e-01  -1.214286014000e-01  0.0
  1.832975030000e+00  -4.625000060000e-02  0.0
  1.853987515000e+00  -1.231250018000e-01  0.0
  1.875000000000e+00  -2.000000030000e-01  0.0
  1.916487515000e+00  -7.187499851000e-02  0.0
  1.937500000000e+00  -1.487499997100e-01  0.0
  2.000000000000e+00  -9.749999642000e-02  0.0
 -1.500000060000e-01  -1.700000018000e-01  0.0
 -1.360000037000e-01  -1.525000036000e-01  0.0
 -1.220000014000e-01  -1.350000054000e-01  0.0
 -1.500000060000e-01  -1.457143016000e-01  0.0
 -1.360000037000e-01  -1.282143034000e-01  0.0
 -1.500000060000e-01  -1.214286014000e-01  0.0
  2.849999964000e-01  -2.333333530000e-02  0.0
  2.837499976000e-01  -8.166666795000e-02  0.0
  2.824999988000e-01  -1.400000006000e-01  0.0
  3.174999952000e-01  -4.666666780000e-02  0.0
  3.162499964000e-01  -1.050000004500e-01  0.0
  3.499999940000e-01  -7.000000030000e-02  0.0
 -1.071429029000e-01  -1.700000018000e-01  0.0
 -8.571431040000e-02  -1.700000018000e-01  0.0
 -6.428571790000e-02  -1.700000018000e-01  0.0
 -9.857145324000e-02  -1.525000036000e-01  0.0
 -7.714286074000e-02  -1.525000036000e-01  0.0
 -9.000000358000e-02  -1.350000054000e-01  0.0
 -1.312499940000e-01  -2.000000030000e-01  0.0
 -1.191964484500e-01  -1.850000024000e-01  0.0
 -1.071429029000e-01  -1.700000018000e-01  0.0
 -1.406250000000e-01  -1.850000024000e-01  0.0
 -1.285714544500e-01  -1.700000018000e-01  0.0
 -1.500000060000e-01  -1.700000018000e-01  0.0
 -1.220000014000e-01  -1.350000054000e-01  0.0
 -1.060000024900e-01  -1.350000054000e-01  0.0
 -9.000000358000e-02  -1.350000054000e-01  0.0
 -1.185000017500e-01  -1.175000034500e-01  0.0
 -1.025000028400e-01  -1.175000034500e-01  0.0
 -1.150000021000e-01  -1.000000015000e-01  0.0
 -9.000000358000e-02  -1.350000054000e-01  0.0
 -1.060000024900e-01  -1.350000054000e-01  0.0
 -1.220000014000e-01  -1.350000054000e-01  0.0
 -9.857145324000e-02  -1.525000036000e-01  0.0
 -1.145714521500e-01  -1.525000036000e-01  0.0
 -1.071429029000e-01  -1.700000018000e-01  0.0
 -7.778175920000e-02  -9.192386270000e-02  0.0
 -9.639088065000e-02  -9.596193210000e-02  0.0
 -1.150000021000e-01  -1.000000015000e-01  0.0
 -8.389088139000e-02  -1.134619340500e-01  0.0
 -1.025000028400e-01  -1.175000034500e-01  0.0
 -9.000000358000e-02  -1.350000054000e-01  0.0
 -1.220000014000e-01  -1.350000054000e-01  0.0
 -1.185000017500e-01  -1.175000034500e-01  0.0
 -1.150000021000e-01  -1.000000015000e-01  0.0
 -1.360000037000e-01  -1.282143034000e-01  0.0
 -1.325000040500e-01  -1.107143014500e-01  0.0
 -1.500000060000e-01  -1.214286014000e-01  0.0
 -7.778175920000e-02  -9.192386270000e-02  0.0
 -8.389088139000e-02  -1.134619340500e-01  0.0
 -9.000000358000e-02  -1.350000054000e-01  0.0
 -6.639088876500e-02  -1.022535823500e-01  0.0
 -7.250001095500e-02  -1.237916537000e-01  0.0
 -5.500001833000e-02  -1.125833020000e-01  0.0
 -1.071429029000e-01  -1.700000018000e-01  0.0
 -1.145714521500e-01  -1.525000036000e-01  0.0
 -1.220000014000e-01  -1.350000054000e-01  0.0
 -1.285714544500e-01  -1.700000018000e-01  0.0
 -1.360000037000e-01  -1.525000036000e-01  0.0
 -1.500000060000e-01  -1.700000018000e-01  0.0
  6.250000093000e-03  -2.000000030000e-01  0.0
  4.062500153650e-02  -2.000000030000e-01  0.0
  7.500000298000e-02  -2.000000030000e-01  0.0
  1.383928512150e-02  -1.850000024000e-01  0.0
  4.821428656500e-02  -1.850000024000e-01  0.0
  2.142857015000e-02  -1.700000018000e-01  0.0
 -1.500000060000e-01  -7.285714149000e-02  0.0
 -1.500000060000e-01  -9.714287144500e-02  0.0
 -1.500000060000e-01  -1.214286014000e-01  0.0
 -1.325000040500e-01  -8.642857149500e-02  0.0
 -1.325000040500e-01  -1.107143014500e-01  0.0
 -1.150000021000e-01  -1.000000015000e-01  0.0
 -2.000000030000e-01  -6.333333254000e-02  0.0
 -1.750000045000e-01  -6.809523701500e-02  0.0
 -1.500000060000e-01  -7.285714149000e-02  0.0
 -1.750000045000e-01  -4.380952660000e-02  0.0
 -1.500000060000e-01  -4.857143107500e-02  0.0
 -1.500000060000e-01  -2.428572066000e-02  0.0
 -2.000000030000e-01  -6.333333254000e-02  0.0
 -2.000000030000e-01  -8.611111717000e-02  0.0
 -2.000000030000e-01  -1.088889018000e-01  0.0
 -1.750000045000e-01  -6.809523701500e-02  0.0
 -1.750000045000e-01  -9.087302164500e-02  0.0
 -1.500000060000e-01  -7.285714149000e-02  0.0
 -2.000000030000e-01  -6.333333254000e-02  0.0
 -1.750000045000e-01  -4.380952660000e-02  0.0
 -1.500000060000e-01  -2.428572066000e-02  0.0
 -2.000000030000e-01  -4.055555630500e-02  0.0
 -1.750000045000e-01  -2.103175036500e-02  0.0
 -2.000000030000e-01  -1.777778007000e-02  0.0
 -1.500000060000e-01  -2.428572066000e-02  0.0
 -1.500000060000e-01  -4.857143107500e-02  0.0
 -1.500000060000e-01  -7.285714149000e-02  0.0
 -1.281259023000e-01  -2.896608505500e-02  0.0
 -1.281259023000e-01  -5.325179547000e-02  0.0
 -1.062517986000e-01  -3.364644945000e-02  0.0
 -1.099999994000e-01   1.996667010000e-08  0.0
 -1.300000027000e-01  -1.214285034666e-02  0.0
 -1.500000060000e-01  -2.428572066000e-02  0.0
 -1.081258990000e-01  -1.682321474166e-02  0.0
 -1.281259023000e-01  -2.896608505500e-02  0.0
 -1.062517986000e-01  -3.364644945000e-02  0.0
 -1.500000060000e-01  -2.428572066000e-02  0.0
 -1.500000060000e-01   0.000000000000e+00  0.0
 -1.500000060000e-01   2.428572066000e-02  0.0
 -1.750000045000e-01  -2.103175036500e-02  0.0
 -1.750000045000e-01   3.253970295000e-03  0.0
 -2.000000030000e-01  -1.777778007000e-02  0.0
 -1.500000060000e-01  -7.285714149000e-02  0.0
 -1.226314045700e-01  -6.892856210000e-02  0.0
 -9.526280314000e-02  -6.499998271000e-02  0.0
 -1.281259023000e-01  -5.325179547000e-02  0.0
 -1.007573008700e-01  -4.932321608000e-02  0.0
 -1.062517986000e-01  -3.364644945000e-02  0.0
  3.499999940000e-01   1.400000006000e-01  0.0
  4.021931737500e-01   1.224999986500e-01  0.0
  4.543863535000e-01   1.049999967000e-01  0.0
  4.187500029500e-01   1.749999970000e-01  0.0
  4.709431827000e-01   1.574999950500e-01  0.0
  4.875000119000e-01   2.099999934000e-01  0.0
 -7.101409137000e-02  -4.349999130000e-02  0.0
 -8.313844725500e-02  -5.424998700500e-02  0.0
 -9.526280314000e-02  -6.499998271000e-02  0.0
 -6.449843011500e-02  -5.250913650000e-02  0.0
 -7.662278600000e-02  -6.325913220500e-02  0.0
 -5.798276886000e-02  -6.151828170000e-02  0.0
 -9.526280314000e-02  -6.499998271000e-02  0.0
 -1.226314045700e-01  -6.892856210000e-02  0.0
 -1.500000060000e-01  -7.285714149000e-02  0.0
 -1.051314026200e-01  -8.249999210500e-02  0.0
 -1.325000040500e-01  -8.642857149500e-02  0.0
 -1.150000021000e-01  -1.000000015000e-01  0.0
 -6.181925908000e-02  -1.656441018000e-02  0.0
 -7.051259093000e-02  -1.954082492500e-02  0.0
 -7.920592278000e-02  -2.251723967000e-02  0.0
 -5.862244405000e-02  -2.428220026000e-02  0.0
 -6.731577590000e-02  -2.725861500500e-02  0.0
 -5.542562902000e-02  -3.199999034000e-02  0.0
 -7.920592278000e-02  -2.251723967000e-02  0.0
 -9.272886069000e-02  -2.808184456000e-02  0.0
 -1.062517986000e-01  -3.364644945000e-02  0.0
 -7.511000707500e-02  -3.300861548500e-02  0.0
 -8.863294498500e-02  -3.857322037500e-02  0.0
 -7.101409137000e-02  -4.349999130000e-02  0.0
 -7.101409137000e-02  -4.349999130000e-02  0.0
 -6.321986019500e-02  -3.774999082000e-02  0.0
 -5.542562902000e-02  -3.199999034000e-02  0.0
 -7.511000707500e-02  -3.300861548500e-02  0.0
 -6.731577590000e-02  -2.725861500500e-02  0.0
 -7.920592278000e-02  -2.251723967000e-02  0.0
 -7.920592278000e-02  -2.251723967000e-02  0.0
 -9.460296109000e-02  -1.125860985166e-02  0.0
 -1.099999994000e-01   1.996667010000e-08  0.0
 -9.272886069000e-02  -2.808184456000e-02  0.0
 -1.081258990000e-01  -1.682321474166e-02  0.0
 -1.062517986000e-01  -3.364644945000e-02  0.0
 -7.778175920000e-02  -9.192386270000e-02  0.0
 -6.788226403000e-02  -7.672107220000e-02  0.0
 -5.798276886000e-02  -6.151828170000e-02  0.0
 -8.652228117000e-02  -7.846192270500e-02  0.0
 -7.662278600000e-02  -6.325913220500e-02  0.0
 -9.526280314000e-02  -6.499998271000e-02  0.0
 -7.101409137000e-02  -4.349999130000e-02  0.0
 -8.863294498500e-02  -3.857322037500e-02  0.0
 -1.062517986000e-01  -3.364644945000e-02  0.0
 -8.313844725500e-02  -5.424998700500e-02  0.0
 -1.007573008700e-01  -4.932321608000e-02  0.0
 -9.526280314000e-02  -6.499998271000e-02  0.0
 -7.778175920000e-02  -9.192386270000e-02  0.0
 -8.652228117000e-02  -7.846192270500e-02  0.0
 -9.526280314000e-02  -6.499998271000e-02  0.0
 -9.639088065000e-02  -9.596193210000e-02  0.0
 -1.051314026200e-01  -8.249999210500e-02  0.0
 -1.150000021000e-01  -1.000000015000e-01  0.0
[...]
POINT_DATA 2244
SCALARS field1 double 1
LOOKUP_TABLE default
  2.831128107538e-03 
  9.376647236852e-02 
  1.847018166295e-01 
  1.369873846557e-03 
  9.230521810754e-02 
 -9.138041442415e-05 
  2.919098722622e-01 
  1.453459026531e-01 
 -1.218066956118e-03 
  1.469182089289e-01 
  3.542393197596e-04 
  1.926545595637e-03 
  1.824301619803e-01 
  2.360762718430e-01 
  2.897223817057e-01 
  2.513638683897e-01 
  3.050099782524e-01 
  3.202975747992e-01 
  2.910130216436e-01 
  2.366031172635e-01 
  1.821932128834e-01 
  2.201467735280e-01 
  1.657368691479e-01 
  1.492805254124e-01 
  3.977769674968e-01 
  3.592242089913e-01 
  3.206714504859e-01 
  3.457704463219e-01 
  3.072176878164e-01 
  2.937639251470e-01 
  2.967119708389e-01 
  1.393181002466e-01 
 -1.807577034576e-02 
  3.144985400767e-01 
  1.571046694844e-01 
  3.322851093145e-01 
  1.496700895675e-01 
  2.135945225189e-01 
  2.775189554704e-01 
  2.209728982584e-01 
  2.848973312099e-01 
  2.922757069493e-01 
  3.704953083247e-01 
  3.711171630570e-01 
  3.717390177893e-01 
  3.758089931009e-01 
  3.764308478332e-01 
  3.811226778771e-01 
  2.119573898020e-01 
  2.513735903878e-01 
  2.907897909736e-01 
  2.623306172695e-01 
  3.017468178553e-01 
  3.127038447370e-01 
  2.532937036462e-04 
  1.061513506618e-01 
  2.120494076200e-01 
  7.246931170662e-02 
  1.783673686648e-01 
  1.446853297096e-01 
  2.742511533438e-01 
  2.921033915135e-01 
  3.099556296831e-01 
  3.213970407040e-01 
  3.392492788736e-01 
  3.685429280642e-01 
  3.101832370993e-01 
  2.923110047368e-01 
  2.744387723742e-01 
  2.610686723258e-01 
  2.431964399633e-01 
  2.119541075523e-01 
  4.070023915781e-01 
  3.875028347441e-01 
  3.680032779101e-01 
  3.598969254191e-01 
  3.403973685852e-01 
  3.127914592602e-01 
  2.756857842162e-01 
  3.223638109282e-01 
  3.690418376401e-01 
  2.846871705613e-01 
  3.313651972733e-01 
  2.936885569064e-01 
  4.073585291245e-01 
  3.598239612406e-01 
  3.122893933566e-01 
  4.138380730278e-01 
  3.663035051438e-01 
  4.203176169311e-01 
  2.104560339994e-01 
  2.438752740612e-01 
  2.772945141229e-01 
  1.791909671538e-01 
  2.126102072155e-01 
  1.479259003081e-01 
  1.483861638336e-03 
  3.110080893552e-03 
  4.736300148768e-03 
  2.053231341464e-01 
  2.069493534017e-01 
  4.091624066546e-01 
  3.973047618828e-01 
  3.456429217673e-01 
  2.939810816517e-01 
  3.831540920312e-01 
  3.314922519157e-01 
  3.690034221797e-01 
  4.137856546986e-01 
  4.041624432165e-01 
  3.945392317344e-01 
  4.244300689289e-01 
  4.148068574468e-01 
  4.350744831592e-01 
  4.127335091577e-01 
  3.670763434135e-01 
  3.214191776692e-01 
  4.041175154691e-01 
  3.584603497249e-01 
  3.955015217805e-01 
  4.150850709149e-01 
  4.251959685572e-01 
  4.353068661994e-01 
  4.377560778330e-01 
  4.478669754753e-01 
  4.604270847511e-01 
  4.354106639744e-01 
  4.165437898045e-01 
  3.976769156346e-01 
  4.054549915175e-01 
  3.865881173476e-01 
  3.754993190606e-01 
  3.515211050850e-01 
  3.936517707421e-01 
  4.357824363992e-01 
  3.614205144680e-01 
  4.035511801251e-01 
  3.713199238510e-01 
  4.309639982493e-01 
  4.358624552230e-01 
  4.407609121967e-01 
  4.459976793700e-01 
  4.508961363437e-01 
  4.610313604907e-01 
  3.966164067058e-01 
  3.851886796147e-01 
  3.737609525237e-01 
  3.854106538646e-01 
  3.739829267736e-01 
  3.742049010235e-01 
  3.620796343156e-01 
  4.005540053495e-01 
  4.390283763834e-01 
  2.122426382513e-01 
  2.507170092852e-01 
  6.240564218701e-02 
  3.409725894668e-01 
  3.606850053095e-01 
  3.803974211522e-01 
  3.821262772042e-01 
  4.018386930469e-01 
  4.232799649416e-01 
  3.751651339953e-01 
  3.860498329677e-01 
  3.969345319402e-01 
  3.729413982357e-01 
  3.838260972081e-01 
  3.707176624761e-01 
  1.303317974140e-01 
  1.993367479794e-01 
  2.683416985448e-01 
  1.706045872625e-01 
  2.396095378279e-01 
  2.108773771110e-01 
  2.593079989738e-01 
  3.146259322165e-01 
  3.699438654592e-01 
  3.001456222716e-01 
  3.554635555143e-01 
  3.409832455694e-01 
  3.412987203256e-01 
  2.784263802690e-01 
  2.155540402124e-01 
  3.030038645661e-01 
  2.401315245095e-01 
  2.647090088065e-01 
  2.582384875476e-01 
  3.028390857040e-01 
  3.474396838604e-01 
  3.146849739156e-01 
  3.592855720719e-01 
  3.711314602835e-01 
  4.080198753465e-01 
  4.173946887392e-01 
  4.267695021318e-01 
  3.932942358256e-01 
  4.026690492183e-01 
  3.785685963047e-01 
  3.433734450751e-01 
  3.575293671786e-01 
  3.716852892821e-01 
  3.624143900347e-01 
  3.765703121383e-01 
  3.814553349944e-01 
  4.038767524851e-01 
  3.896698724360e-01 
  3.754629923869e-01 
  3.860729314997e-01 
  3.718660514506e-01 
  3.682691105143e-01 
  2.652044366770e-01 
  1.994336601249e-01 
  1.336628835727e-01 
  2.511382689371e-01 
  1.853674923849e-01 
  2.370721011971e-01 
  4.190243464914e-01 
  3.659694660284e-01 
  3.129145855654e-01 
  3.554160119985e-01 
  3.023611315356e-01 
  2.918076775057e-01 
  3.032036238858e-01 
  3.195218875849e-01 
  3.358401512841e-01 
  3.223005707614e-01 
  3.386188344605e-01 
  3.413975176370e-01 
  4.410691047600e-01 
  4.034698973306e-01 
  3.658706899012e-01 
  4.616757271736e-01 
  4.240765197441e-01 
  4.822823495871e-01 
  4.375316172142e-01 
  4.272596695145e-01 
  4.169877218147e-01 
  3.648431890734e-01 
  3.545712413737e-01 
  2.921547609326e-01 
  4.064304676157e-01 
  4.537824627308e-01 
  5.011344578458e-01 
  4.160928963389e-01 
  4.634448914539e-01 
  4.257553250620e-01 
  5.036027015404e-01 
  4.551618359205e-01 
  4.067209703006e-01 
  4.644435317069e-01 
  4.160026660870e-01 
  4.252843618734e-01 
  5.729185940206e-01 
  5.392574555327e-01 
  5.055963170447e-01 
  4.973379829181e-01 
  4.636768444301e-01 
  4.217573718155e-01 
  4.650014349940e-01 
  4.449596597488e-01 
  4.249178845036e-01 
  4.862346624548e-01 
  4.661928872096e-01 
  5.074678899156e-01 
  4.185146649516e-01 
  4.307560268154e-01 
  4.429973886792e-01 
  4.969246457470e-01 
  5.091660076108e-01 
  5.753346265423e-01 
  4.400972435722e-01 
  3.667327625233e-01 
  2.933682814745e-01 
  4.026683233069e-01 
  3.293038422580e-01 
  3.652394030416e-01 
  6.123495545735e-01 
  5.948748015112e-01 
  5.774000484489e-01 
  5.293060340458e-01 
  5.118312809835e-01 
  4.462625135181e-01 
  1.032079553511e-03 
  2.254205839678e-01 
  4.498090883821e-01 
 -2.512173386451e-03 
  2.218763310278e-01 
 -6.056426326413e-03 
  5.866753001660e-01 
  5.275396841229e-01 
  4.684040680797e-01 
  5.437200992079e-01 
  4.845844831648e-01 
  5.007648982498e-01 
  4.651810519865e-01 
  5.259949501026e-01 
  5.868088482186e-01 
  5.333045456624e-01 
  5.941184437784e-01 
  6.014280393383e-01 
  4.992200454860e-01 
  4.822776329105e-01 
  4.653352203350e-01 
  2.547324006383e-01 
  2.377899880628e-01 
  1.024475579055e-02 
  5.765735122536e-01 
  5.400300500474e-01 
  5.034865878413e-01 
  5.426576659318e-01 
  5.061142037256e-01 
  5.087418196100e-01 
  5.630189458136e-01 
  5.071311467521e-01 
  4.512433476905e-01 
  5.842229588097e-01 
  5.283351597482e-01 
  6.054269718058e-01 
  6.119751921189e-01 
  5.295039955573e-01 
  4.470327989957e-01 
  5.458104871935e-01 
  4.633392906319e-01 
  4.796457822681e-01 
  3.665720708258e-01 
  3.832843812170e-01 
  3.999966916083e-01 
  4.247676083929e-01 
  4.414799187841e-01 
  4.829631459599e-01 
  4.629543689465e-01 
  4.878507108879e-01 
  5.127470528292e-01 
  4.820523365156e-01 
  5.069486784570e-01 
  5.011503040847e-01 
 -1.629413542689e-03 
  1.091242587384e-01 
  2.198779310194e-01 
  4.816383995176e-03 
  1.155700562762e-01 
  1.126218153304e-02 
  2.164073284210e-01 
  2.766642432069e-01 
  3.369211579928e-01 
  2.838166036142e-01 
  3.440735184002e-01 
  3.512258788075e-01 
  3.355733511858e-01 
  1.709672298111e-01 
  6.361108436526e-03 
  1.677150604445e-01 
  3.108939069908e-03 
 -1.432302967097e-04 
 -8.384697711491e-03 
  1.930460192365e-02 
  4.699390155880e-02 
  5.984050839877e-02 
  8.752980803392e-02 
  1.280657145090e-01 
  3.520270003387e-03 
 -2.832168551633e-03 
 -9.184607106652e-03 
  1.051793572880e-01 
  9.882691873299e-02 
  2.068384445726e-01 
  2.423776582113e-01 
  1.217701816082e-01 
  1.162705005011e-03 
  2.122622095082e-01 
  9.165473290507e-02 
  1.821467608051e-01 
  2.179321646617e-01 
  2.890399032397e-01 
  3.601476418176e-01 
  1.166758829531e-01 
  1.877836215310e-01 
  1.541960124440e-02 
 -1.238812882423e-02 
  5.684582461785e-02 
  1.260797780599e-01 
  9.674773619517e-02 
  1.659816896372e-01 
  2.058836012146e-01 
  3.927994325784e-03 
  4.696164329259e-03 
  5.464334332734e-03 
  2.530268452248e-01 
  2.537950152283e-01 
  5.021256961239e-01 
  9.009335593706e-03 
  2.377499429843e-01 
  4.664905503749e-01 
  5.161718614825e-03 
  2.339023260054e-01 
  1.314101635945e-03 
  3.868913276052e-01 
  1.953334281266e-01 
  3.775528648137e-03 
  3.516343312850e-01 
  1.600764318065e-01 
  3.163773349649e-01 
  3.664612197023e-03 
  1.901346544761e-01 
  3.766046967551e-01 
  9.318050922679e-03 
  1.957880932017e-01 
  1.497148964834e-02 
  1.302810112401e-02 
  2.381313346294e-01 
  4.632345681348e-01 
  2.549181777818e-01 
  4.800214112872e-01 
  4.968082544396e-01 
  3.679693871308e-01 
  1.884003199980e-01 
  8.831252865130e-03 
  3.835490063275e-01 
  2.039799391947e-01 
  3.991286255243e-01 
  2.163812579352e-01 
  1.086009672608e-01 
  8.206765863537e-04 
  1.100619421343e-01 
  2.281651459917e-03 
  3.742626333481e-03 
  2.286084295490e-02 
  1.969006095147e-01 
  3.709403760746e-01 
  2.423334624373e-01 
  4.163732289971e-01 
  4.618060819197e-01 
  3.588254796750e-01 
  3.922629269675e-01 
  4.257003742600e-01 
  4.111220645231e-01 
  4.445595118156e-01 
  4.634186493711e-01 
  2.981496274789e-01 
  1.532193992983e-01 
  8.289171117621e-03 
  3.291664316964e-01 
  1.842362035158e-01 
  3.601832359139e-01 
  6.092160171178e-01 
  5.434751587462e-01 
  4.777343003746e-01 
  5.576007064937e-01 
  4.918598481221e-01 
  5.059853958696e-01 
  3.530761150462e-01 
  3.445880185938e-01 
  3.360999221414e-01 
  3.899255153313e-01 
  3.814374188789e-01 
  4.267749156164e-01 
  1.570188250118e-03 
  4.273466366554e-03 
  6.976744482990e-03 
  1.518000057639e-01 
  1.545032838803e-01 
  3.020298232777e-01 
  4.138919314184e-02 
  1.879728370982e-02 
 -3.794625722201e-03 
  1.879488730021e-02 
 -3.797022131812e-03 
 -3.799418541424e-03 
  4.191323076897e-01 
  4.295856406214e-01 
  4.400389735531e-01 
  4.015798424379e-01 
  4.120331753696e-01 
  3.840273771861e-01 
  4.418296566552e-01 
  4.505603751415e-01 
  4.592910936279e-01 
  4.518178864692e-01 
  4.605486049555e-01 
  4.618061162831e-01 
  4.579137466523e-01 
  4.363406291903e-01 
  4.147675117283e-01 
  4.355036336919e-01 
  4.139305162300e-01 
  4.130935207316e-01 
  4.151145096899e-01 
  4.361173661596e-01 
  4.571202226294e-01 
  4.270960280871e-01 
  4.480988845568e-01 
  4.390775464843e-01 
  4.122297865183e-01 
  4.144065331412e-01 
  4.165832797640e-01 
  3.672081273387e-01 
  3.693848739616e-01 
  3.221864681591e-01 
 -8.817555951094e-03 
 -2.895855848762e-02 
 -4.909956102414e-02 
  1.422286318690e-01 
  1.220876293324e-01 
  2.932748196890e-01 
  4.420022954707e-01 
  3.973608048849e-01 
  3.527193142991e-01 
  4.106327048693e-01 
  3.659912142835e-01 
  3.792631142679e-01 
  4.415212371356e-01 
  4.375400649378e-01 
  4.335588927400e-01 
  3.985657602471e-01 
  3.945845880493e-01 
  3.556102833586e-01 
  2.601171203531e-01 
  3.196428218857e-01 
  3.791685234183e-01 
  3.048828234767e-01 
  3.644085250092e-01 
  3.496485266002e-01 
  3.561996873561e-01 
  3.096024169141e-01 
  2.630051464721e-01 
  2.916255980067e-01 
  2.450283275646e-01 
  2.270515086572e-01 
  3.779430930972e-01 
  3.637620477942e-01 
  3.495810024912e-01 
  3.818726183195e-01 
  3.676915730165e-01 
  3.858021435418e-01 
  3.491374892034e-01 
  3.625374040766e-01 
  3.759373189499e-01 
  3.051132496413e-01 
  3.185131645146e-01 
  2.610890100793e-01 
  4.107792660639e-01 
  3.970071408627e-01 
  3.832350156615e-01 
  4.258804520684e-01 
  4.121083268671e-01 
  4.409816380728e-01 
  3.819103025718e-01 
  3.824436398990e-01 
  3.829769772262e-01 
  4.007891513338e-01 
  4.013224886610e-01 
  4.196680000958e-01 
  2.640245990817e-01 
  2.496640972501e-01 
  2.353035954185e-01 
  1.992231468178e-01 
  1.848626449862e-01 
  1.344216945539e-01 
  2.604285838260e-01 
  3.041871100041e-01 
  3.479456361821e-01 
  2.474229277783e-01 
  2.911814539564e-01 
  2.344172717307e-01 
  3.462511662135e-01 
  3.028110827933e-01 
  2.593709993730e-01 
  2.910712512832e-01 
  2.476311678629e-01 
  2.358913363528e-01 
  4.187487733197e-01 
  4.022869513207e-01 
  3.858251293217e-01 
  4.021785461311e-01 
  3.857167241321e-01 
  3.856083189425e-01 
  3.211356061678e-01 
  3.160064192725e-01 
  3.108772323773e-01 
  2.519723941091e-01 
  2.468432072139e-01 
  1.828091820504e-01 
  3.220237694245e-01 
  3.701615558454e-01 
  4.182993422662e-01 
  3.179479451203e-01 
  3.660857315412e-01 
  3.138721208162e-01 
  1.816036069947e-01 
  1.831760750895e-01 
  1.847485431843e-01 
  9.095768555914e-02 
  9.253015365393e-02 
  3.117641235938e-04 
  1.861848479228e-01 
  1.840440746780e-01 
  1.819033014331e-01 
  2.489661498195e-01 
  2.468253765747e-01 
  3.117474517163e-01 
  2.533713685151e-01 
  1.298122061448e-01 
  6.253043774553e-03 
  1.262382490281e-01 
  2.679086657772e-03 
 -8.948704590100e-04 
  3.125490986758e-02 
  1.684827015373e-02 
  2.441630439877e-03 
  2.081030254942e-01 
  1.936963857804e-01 
  3.849511411209e-01 
  3.129060100024e-01 
  3.037768501049e-01 
  2.946476902074e-01 
  2.495793500090e-01 
  2.404501901115e-01 
  1.862526900156e-01 
  3.496607915738e-01 
  1.740585289298e-01 
 -1.543733714181e-03 
  1.878850018741e-01 
  1.228273923010e-02 
  2.610921217439e-02 
  3.832783468952e-01 
  3.950961739401e-01 
  4.069140009851e-01 
  3.607952612747e-01 
  3.726130883197e-01 
  3.383121756543e-01 
  4.059128133326e-01 
  3.951884233310e-01 
  3.844640333294e-01 
  3.958408209401e-01 
  3.851164309384e-01 
  3.857688285475e-01 
  2.901304824419e-01 
  3.154360414726e-01 
  3.407416005032e-01 
  2.677775364118e-01 
  2.930830954424e-01 
  2.454245903816e-01 
  3.373558159643e-01 
  3.149057737269e-01 
  2.924557314894e-01 
  3.601194269601e-01 
  3.376693847227e-01 
  3.828830379559e-01 
  2.490093817454e-01 
  2.959179276350e-01 
  3.428264735247e-01 
  2.893607284768e-01 
  3.362692743665e-01 
  3.297120752082e-01 
  2.935320833767e-01 
  2.672720425342e-01 
  2.410120016917e-01 
  2.389104611259e-01 
  2.126504202834e-01 
  1.842888388751e-01 
  4.060196347443e-01 
  4.099632452545e-01 
  4.139068557646e-01 
  3.723714712099e-01 
  3.763150817200e-01 
  3.387233076754e-01 
  3.832727575308e-01 
  3.387838177642e-01 
  2.942948779976e-01 
  3.482255686251e-01 
  3.037366288585e-01 
  3.131783797195e-01 
  4.177700178953e-01 
  4.002433312663e-01 
  3.827166446373e-01 
  3.653958119221e-01 
  3.478691252930e-01 
  3.130216059488e-01 
  2.538105441237e-01 
  2.884916645552e-01 
  3.231727849867e-01 
  1.304974277631e-01 
  1.651785481946e-01 
  7.184311402465e-03 
  3.815488354371e-01 
  3.664827770581e-01 
  3.514167186790e-01 
  4.105644503677e-01 
  3.954983919887e-01 
  4.395800652983e-01 
  5.838654087627e-02 
  1.702345350017e-01 
  2.820825291270e-01 
  1.184814757093e-01 
  2.303294698347e-01 
  1.785764105424e-01 
  4.442101221032e-02 
  2.010509353592e-02 
 -4.210825138480e-03 
  8.842191676741e-02 
  6.410599809301e-02 
  1.324228213245e-01 
  4.048252129182e-02 
  1.806336312682e-02 
 -4.355795038189e-03 
  1.911697380835e-02 
 -3.302184356659e-03 
 -2.248573675129e-03 
  1.348554933144e-01 
  6.802576497358e-02 
  1.196036632810e-03 
  1.766655593869e-01 
  1.098358310462e-01 
  2.184756254595e-01 
  3.316751676087e-01 
  2.747552965131e-01 
  2.178354254175e-01 
  1.643123389423e-01 
  1.073924678467e-01 
 -3.050489724077e-03 
  3.412386914396e-01 
  3.937365526248e-01 
  4.462344138101e-01 
  3.493553725451e-01 
  4.018532337303e-01 
  3.574720536506e-01 
  3.361052481990e-01 
  3.484759435096e-01 
  3.608466388202e-01 
  2.792450223175e-01 
  2.916157176282e-01 
  2.223847964361e-01 
  2.282154574222e-03 
  6.824016748605e-02 
  1.341981803979e-01 
 -1.221699931197e-04 
  6.583584291871e-02 
 -2.526494560461e-03 
  2.656421350473e-01 
  1.998939698882e-01 
  1.341458047291e-01 
  2.443534877677e-01 
  1.786053226086e-01 
  2.230648404880e-01 
 -1.220079993287e-03 
  2.977403039429e-03 
  7.174886072146e-03 
  1.664686391682e-01 
  1.706661222010e-01 
  3.341573583298e-01 
  4.054307645661e-01 
  2.073905050017e-01 
  9.350245437345e-03 
  3.994882148145e-01 
  2.014479552501e-01 
  3.935456650629e-01 
  2.692364056072e-01 
  1.941328721265e-01 
  1.190293386458e-01 
  3.563614021459e-01 
  2.812578686652e-01 
  4.434863986845e-01 
  1.845779850131e-01 
  9.380132463951e-02 
  3.024664265919e-03 
  1.657604741503e-01 
  7.498381377669e-02 
  1.469429632875e-01 
  4.784510377715e-01 
  2.409163440208e-01 
  3.381650270189e-03 
  2.450448421516e-01 
  7.510148400932e-03 
  1.163864653167e-02 
  4.650622061298e-01 
  2.322062726837e-01 
 -6.496607622514e-04 
  2.378683515762e-01 
  5.012418130187e-03 
  1.067449702263e-02 
  3.386989565445e-01 
  1.722233711746e-01 
  5.747785804732e-03 
  3.128448877398e-01 
  1.463693023700e-01 
  2.869908189352e-01 
  3.300130192109e-01 
  1.665201993832e-01 
  3.027379555444e-03 
  3.916756285567e-01 
  2.281828087289e-01 
  4.533382379024e-01 
  3.797236730864e-01 
  3.623107718571e-01 
  3.448978706277e-01 
  3.692964525754e-01 
  3.518835513461e-01 
  3.588692320644e-01 
  5.084575851312e-01 
  2.567979287311e-01 
  5.138272331041e-03 
  2.551347637443e-01 
  3.475107344235e-03 
  1.811942357430e-03 
  4.434414548397e-01 
  4.499346711622e-01 
  4.564278874847e-01 
  4.833425275581e-01 
  4.898357438806e-01 
  5.232436002766e-01 
  4.509558755687e-01 
  4.494571691894e-01 
  4.479584628100e-01 
  3.934048300134e-01 
  3.919061236340e-01 
  3.358537844580e-01 
  4.348738855683e-01 
  3.801094761129e-01 
  3.253450666575e-01 
  4.245780782839e-01 
  3.698136688285e-01 
  4.142822709994e-01 
  3.292114427526e-01 
  3.355599206846e-01 
  3.419083986166e-01 
  3.711833720364e-01 
  3.775318499684e-01 
  4.131553013202e-01 
  4.208865013398e-01 
  4.139250598726e-01 
  4.069636184054e-01 
  4.720320890300e-01 
  4.650706475628e-01 
  5.231776767203e-01 
  5.235424385783e-01 
  5.541412091796e-01 
  5.847399797810e-01 
  4.716790995176e-01 
  5.022778701189e-01 
  4.198157604569e-01 
  5.232646259744e-01 
  4.929119154626e-01 
  4.625592049508e-01 
  5.145402843742e-01 
  4.841875738625e-01 
  5.058159427741e-01 
  4.412059206867e-01 
  4.805625880641e-01 
  5.199192554415e-01 
  4.245722340100e-01 
  4.639289013874e-01 
  4.079385473333e-01 
  5.028338882366e-01 
  4.883077766036e-01 
  4.737816649707e-01 
  5.470291821727e-01 
  5.325030705398e-01 
  5.912244761088e-01 
  5.056713631315e-01 
  4.897347898995e-01 
  4.737982166674e-01 
  2.619148555747e-01 
  2.459782823426e-01 
  1.815834801786e-02 
  4.485798458501e-01 
  5.182636660725e-01 
  5.879474862950e-01 
  5.291172096387e-01 
  5.988010298612e-01 
  6.096545734274e-01 
  5.877341939010e-01 
  5.159938770694e-01 
  4.442535602379e-01 
  5.021337485303e-01 
  4.303934316987e-01 
  4.165333031596e-01 
  3.851337764943e-01 
  4.117501262165e-01 
  4.383664759386e-01 
  4.357053642253e-01 
  4.623217139474e-01 
  4.862769519563e-01 
  4.370310727020e-01 
  4.105272367516e-01 
  3.840234008013e-01 
  3.793387231028e-01 
  3.528348871525e-01 
  3.216463735037e-01 
  5.984598887915e-01 
  5.952397550997e-01 
  5.920196214078e-01 
  5.345109128369e-01 
  5.312907791451e-01 
  4.705619368823e-01 
  5.044474446776e-01 
  5.440916312528e-01 
  5.837358178280e-01 
  5.133632283371e-01 
  5.530074149123e-01 
  5.222790119966e-01 
  9.354652263794e-03 
  2.412081948834e-01 
  4.730617375029e-01 
  2.570010619142e-01 
  4.888546045337e-01 
  5.046474715645e-01 