# vtk DataFile Version 2
NuDG++ 2D simulation
ASCII
DATASET UNSTRUCTURED_GRID

POINTS 2244 double
 -1.656250060000e-01  -2.000000030000e-01  0.0
 -1.828125045000e-01  -1.772221997500e-01  0.0
 -2.000000030000e-01  -1.544443965000e-01  0.0
 -1.828125045000e-01  -2.000000030000e-01  0.0
 -2.000000030000e-01  -1.772221997500e-01  0.0
 -2.000000030000e-01  -2.000000030000e-01  0.0
 -6.428571790000e-02  -1.700000018000e-01  0.0
 -8.058035746000e-02  -1.850000024000e-01  0.0
 -9.687499702000e-02  -2.000000030000e-01  0.0
 -6.339285895000e-02  -1.850000024000e-01  0.0
 -7.968749851000e-02  -2.000000030000e-01  0.0
 -6.250000000000e-02  -2.000000030000e-01  0.0
 -2.000000030000e-01  -1.544443965000e-01  0.0
 -1.750000045000e-01  -1.379364989500e-01  0.0
 -1.500000060000e-01  -1.214286014000e-01  0.0
 -2.000000030000e-01  -1.316666491500e-01  0.0
 -1.750000045000e-01  -1.151587516000e-01  0.0
 -2.000000030000e-01  -1.088889018000e-01  0.0
 -1.500000060000e-01  -1.214286014000e-01  0.0
 -1.750000045000e-01  -1.379364989500e-01  0.0
 -2.000000030000e-01  -1.544443965000e-01  0.0
 -1.500000060000e-01  -1.457143016000e-01  0.0
 -1.750000045000e-01  -1.622221991500e-01  0.0
 -1.500000060000e-01  -1.700000018000e-01  0.0
 -1.500000060000e-01  -7.285714149000e-02  0.0
 -1.750000045000e-01  -9.087302164500e-02  0.0
 -2.000000030000e-01  -1.088889018000e-01  0.0
 -1.500000060000e-01  -9.714287144500e-02  0.0
 -1.750000045000e-01  -1.151587516000e-01  0.0
 -1.500000060000e-01  -1.214286014000e-01  0.0
  1.832975030000e+00  -4.625000060000e-02  0.0
  1.853987515000e+00  -1.231250018000e-01  0.0
  1.875000000000e+00  -2.000000030000e-01  0.0
  1.916487515000e+00  -7.187499851000e-02  0.0
  1.937500000000e+00  -1.487499997100e-01  0.0
  2.000000000000e+00  -9.749999642000e-02  0.0
 -1.500000060000e-01  -1.700000018000e-01  0.0
 -1.360000037000e-01  -1.525000036000e-01  0.0
 -1.220000014000e-01  -1.350000054000e-01  0.0
 -1.500000060000e-01  -1.457143016000e-01  0.0
 -1.360000037000e-01  -1.282143034000e-01  0.0
 -1.500000060000e-01  -1.214286014000e-01  0.0
  2.849999964000e-01  -2.333333530000e-02  0.0
  2.837499976000e-01  -8.166666795000e-02  0.0
  2.824999988000e-01  -1.400000006000e-01  0.0
  3.174999952000e-01  -4.666666780000e-02  0.0
  3.162499964000e-01  -1.050000004500e-01  0.0
  3.499999940000e-01  -7.000000030000e-02  0.0
 -1.071429029000e-01  -1.700000018000e-01  0.0
 -8.571431040000e-02  -1.700000018000e-01  0.0
 -6.428571790000e-02  -1.700000018000e-01  0.0
 -9.857145324000e-02  -1.525000036000e-01  0.0
 -7.714286074000e-02  -1.525000036000e-01  0.0
 -9.000000358000e-02  -1.350000054000e-01  0.0
 -1.312499940000e-01  -2.000000030000e-01  0.0
 -1.191964484500e-01  -1.850000024000e-01  0.0
 -1.071429029000e-01  -1.700000018000e-01  0.0
 -1.406250000000e-01  -1.850000024000e-01  0.0
 -1.285714544500e-01  -1.700000018000e-01  0.0
 -1.500000060000e-01  -1.700000018000e-01  0.0
 -1.220000014000e-01  -1.350000054000e-01  0.0
 -1.060000024900e-01  -1.350000054000e-01  0.0
 -9.000000358000e-02  -1.350000054000e-01  0.0
 -1.185000017500e-01  -1.175000034500e-01  0.0
 -1.025000028400e-01  -1.175000034500e-01  0.0
 -1.150000021000e-01  -1.000000015000e-01  0.0
 -9.000000358000e-02  -1.350000054000e-01  0.0
 -1.060000024900e-01  -1.350000054000e-01  0.0
 -1.220000014000e-01  -1.350000054000e-01  0.0
 -9.857145324000e-02  -1.525000036000e-01  0.0
 -1.145714521500e-01  -1.525000036000e-01  0.0
 -1.071429029000e-01  -1.700000018000e-01  0.0
 -7.778175920000e-02  -9.192386270000e-02  0.0
 -9.639088065000e-02  -9.596193210000e-02  0.0
 -1.150000021000e-01  -1.000000015000e-01  0.0
 -8.389088139000e-02  -1.134619340500e-01  0.0
 -1.025000028400e-01  -1.175000034500e-01  0.0
 -9.000000358000e-02  -1.350000054000e-01  0.0
 -1.220000014000e-01  -1.350000054000e-01  0.0
 -1.185000017500e-01  -1.175000034500e-01  0.0
 -1.150000021000e-01  -1.000000015000e-01  0.0
 -1.360000037000e-01  -1.282143034000e-01  0.0
 -1.325000040500e-01  -1.107143014500e-01  0.0
 -1.500000060000e-01  -1.214286014000e-01  0.0
 -7.778175920000e-02  -9.192386270000e-02  0.0
 -8.389088139000e-02  -1.134619340500e-01  0.0
 -9.000000358000e-02  -1.350000054000e-01  0.0
 -6.639088876500e-02  -1.022535823500e-01  0.0
 -7.250001095500e-02  -1.237916537000e-01  0.0
 -5.500001833000e-02  -1.125833020000e-01  0.0
 -1.071429029000e-01  -1.700000018000e-01  0.0
 -1.145714521500e-01  -1.525000036000e-01  0.0
 -1.220000014000e-01  -1.350000054000e-01  0.0
 -1.285714544500e-01  -1.700000018000e-01  0.0
 -1.360000037000e-01  -1.525000036000e-01  0.0
 -1.500000060000e-01  -1.700000018000e-01  0.0
  6.250000093000e-03  -2.000000030000e-01  0.0
  4.062500153650e-02  -2.000000030000e-01  0.0
  7.500000298000e-02  -2.000000030000e-01  0.0
  1.383928512150e-02  -1.850000024000e-01  0.0
  4.821428656500e-02  -1.850000024000e-01  0.0
  2.142857015000e-02  -1.700000018000e-01  0.0
 -1.500000060000e-01  -7.285714149000e-02  0.0
 -1.500000060000e-01  -9.714287144500e-02  0.0
 -1.500000060000e-01  -1.214286014000e-01  0.0
 -1.325000040500e-01  -8.642857149500e-02  0.0
 -1.325000040500e-01  -1.107143014500e-01  0.0
 -1.150000021000e-01  -1.000000015000e-01  0.0
 -2.000000030000e-01  -6.333333254000e-02  0.0
 -1.750000045000e-01  -6.809523701500e-02  0.0
 -1.500000060000e-01  -7.285714149000e-02  0.0
 -1.750000045000e-01  -4.380952660000e-02  0.0
 -1.500000060000e-01  -4.857143107500e-02  0.0
 -1.500000060000e-01  -2.428572066000e-02  0.0
 -2.000000030000e-01  -6.333333254000e-02  0.0
 -2.000000030000e-01  -8.611111717000e-02  0.0
 -2.000000030000e-01  -1.088889018000e-01  0.0
 -1.750000045000e-01  -6.809523701500e-02  0.0
 -1.750000045000e-01  -9.087302164500e-02  0.0
 -1.500000060000e-01  -7.285714149000e-02  0.0
 -2.000000030000e-01  -6.333333254000e-02  0.0
 -1.750000045000e-01  -4.380952660000e-02  0.0
 -1.500000060000e-01  -2.428572066000e-02  0.0
 -2.000000030000e-01  -4.055555630500e-02  0.0
 -1.750000045000e-01  -2.103175036500e-02  0.0
 -2.000000030000e-01  -1.777778007000e-02  0.0
 -1.500000060000e-01  -2.428572066000e-02  0.0
 -1.500000060000e-01  -4.857143107500e-02  0.0
 -1.500000060000e-01  -7.285714149000e-02  0.0
 -1.281259023000e-01  -2.896608505500e-02  0.0
 -1.281259023000e-01  -5.325179547000e-02  0.0
 -1.062517986000e-01  -3.364644945000e-02  0.0
 -1.099999994000e-01   1.996667010000e-08  0.0
 -1.300000027000e-01  -1.214285034666e-02  0.0
 -1.500000060000e-01  -2.428572066000e-02  0.0
 -1.081258990000e-01  -1.682321474166e-02  0.0
 -1.281259023000e-01  -2.896608505500e-02  0.0
 -1.062517986000e-01  -3.364644945000e-02  0.0
 -1.500000060000e-01  -2.428572066000e-02  0.0
 -1.500000060000e-01   0.000000000000e+00  0.0
 -1.500000060000e-01   2.428572066000e-02  0.0
 -1.750000045000e-01  -2.103175036500e-02  0.0
 -1.750000045000e-01   3.253970295000e-03  0.0
 -2.000000030000e-01  -1.777778007000e-02  0.0
 -1.500000060000e-01  -7.285714149000e-02  0.0
 -1.226314045700e-01  -6.892856210000e-02  0.0
 -9.526280314000e-02  -6.499998271000e-02  0.0
 -1.281259023000e-01  -5.325179547000e-02  0.0
 -1.007573008700e-01  -4.932321608000e-02  0.0
 -1.062517986000e-01  -3.364644945000e-02  0.0
  3.499999940000e-01   1.400000006000e-01  0.0
  4.021931737500e-01   1.224999986500e-01  0.0
  4.543863535000e-01   1.049999967000e-01  0.0
  4.187500029500e-01   1.749999970000e-01  0.0
  4.709431827000e-01   1.574999950500e-01  0.0
  4.875000119000e-01   2.099999934000e-01  0.0
 -7.101409137000e-02  -4.349999130000e-02  0.0
 -8.313844725500e-02  -5.424998700500e-02  0.0
 -9.526280314000e-02  -6.499998271000e-02  0.0
 -6.449843011500e-02  -5.250913650000e-02  0.0
 -7.662278600000e-02  -6.325913220500e-02  0.0
 -5.798276886000e-02  -6.151828170000e-02  0.0
 -9.526280314000e-02  -6.499998271000e-02  0.0
 -1.226314045700e-01  -6.892856210000e-02  0.0
 -1.500000060000e-01  -7.285714149000e-02  0.0
 -1.051314026200e-01  -8.249999210500e-02  0.0
 -1.325000040500e-01  -8.642857149500e-02  0.0
 -1.150000021000e-01  -1.000000015000e-01  0.0
 -6.181925908000e-02  -1.656441018000e-02  0.0
 -7.051259093000e-02  -1.954082492500e-02  0.0
 -7.920592278000e-02  -2.251723967000e-02  0.0
 -5.862244405000e-02  -2.428220026000e-02  0.0
 -6.731577590000e-02  -2.725861500500e-02  0.0
 -5.542562902000e-02  -3.199999034000e-02  0.0
 -7.920592278000e-02  -2.251723967000e-02  0.0
 -9.272886069000e-02  -2.808184456000e-02  0.0
 -1.062517986000e-01  -3.364644945000e-02  0.0
 -7.511000707500e-02  -3.300861548500e-02  0.0
 -8.863294498500e-02  -3.857322037500e-02  0.0
 -7.101409137000e-02  -4.349999130000e-02  0.0
 -7.101409137000e-02  -4.349999130000e-02  0.0
 -6.321986019500e-02  -3.774999082000e-02  0.0
 -5.542562902000e-02  -3.199999034000e-02  0.0
 -7.511000707500e-02  -3.300861548500e-02  0.0
 -6.731577590000e-02  -2.725861500500e-02  0.0
 -7.920592278000e-02  -2.251723967000e-02  0.0
 -7.920592278000e-02  -2.251723967000e-02  0.0
 -9.460296109000e-02  -1.125860985166e-02  0.0
 -1.099999994000e-01   1.996667010000e-08  0.0
 -9.272886069000e-02  -2.808184456000e-02  0.0
 -1.081258990000e-01  -1.682321474166e-02  0.0
 -1.062517986000e-01  -3.364644945000e-02  0.0
 -7.778175920000e-02  -9.192386270000e-02  0.0
 -6.788226403000e-02  -7.672107220000e-02  0.0
 -5.798276886000e-02  -6.151828170000e-02  0.0
 -8.652228117000e-02  -7.846192270500e-02  0.0
 -7.662278600000e-02  -6.325913220500e-02  0.0
 -9.526280314000e-02  -6.499998271000e-02  0.0
 -7.101409137000e-02  -4.349999130000e-02  0.0
 -8.863294498500e-02  -3.857322037500e-02  0.0
 -1.062517986000e-01  -3.364644945000e-02  0.0
 -8.313844725500e-02  -5.424998700500e-02  0.0
 -1.007573008700e-01  -4.932321608000e-02  0.0
 -9.526280314000e-02  -6.499998271000e-02  0.0
 -7.778175920000e-02  -9.192386270000e-02  0.0
 -8.652228117000e-02  -7.846192270500e-02  0.0
 -9.526280314000e-02  -6.499998271000e-02  0.0
 -9.639088065000e-02  -9.596193210000e-02  0.0
 -1.051314026200e-01  -8.249999210500e-02  0.0
 -1.150000021000e-01  -1.000000015000e-01  0.0
[...]
POINT_DATA 2244
SCALARS field1 double 1
LOOKUP_TABLE default
  2.060376578768e-03 
  4.314741810961e-02 
  8.423445964044e-02 
  1.282441353921e-03 
  4.236948288476e-02 
  5.045061290752e-04 
  1.743660382359e-01 
  8.793996373365e-02 
  1.513889231371e-03 
  8.790030732822e-02 
  1.474232825945e-03 
  1.434576420519e-03 
  8.275584088923e-02 
  1.071167040447e-01 
  1.314775672002e-01 
  1.145874949683e-01 
  1.389483581238e-01 
  1.464191490474e-01 
  1.329966363548e-01 
  1.070931274729e-01 
  8.118961859102e-02 
  1.099505748315e-01 
  8.404706594961e-02 
  8.690451330819e-02 
  1.781418167248e-01 
  1.623211810555e-01 
  1.465005453861e-01 
  1.559893146169e-01 
  1.401686789475e-01 
  1.338368125089e-01 
  1.983724947614e-01 
  1.209161611790e-01 
  4.345982759662e-02 
  1.876764071496e-01 
  1.102200735672e-01 
  1.769803195377e-01 
  8.871219982907e-02 
  1.164783812132e-01 
  1.442445625973e-01 
  1.113365280595e-01 
  1.391027094436e-01 
  1.339608562899e-01 
  1.567794659237e-01 
  1.678684828083e-01 
  1.789574996929e-01 
  1.617948403697e-01 
  1.728838572543e-01 
  1.668102148157e-01 
  1.402599741256e-01 
  1.556462879036e-01 
  1.710326016815e-01 
  1.491578708429e-01 
  1.645441846208e-01 
  1.580557675601e-01 
  2.909916326454e-03 
  7.202000171651e-02 
  1.411300871066e-01 
  4.541500549783e-02 
  1.145250908879e-01 
  8.792009466920e-02 
  1.406912880832e-01 
  1.474031414360e-01 
  1.541149947888e-01 
  1.491353179865e-01 
  1.558471713393e-01 
  1.575793478898e-01 
  1.557022388708e-01 
  1.483585327464e-01 
  1.410148266220e-01 
  1.482418953891e-01 
  1.408981892647e-01 
  1.407815519074e-01 
  1.812730723840e-01 
  1.691376771163e-01 
  1.570022818485e-01 
  1.683708638558e-01 
  1.562354685880e-01 
  1.554686553275e-01 
  1.412312148641e-01 
  1.503477805209e-01 
  1.594643461777e-01 
  1.386718769718e-01 
  1.477884426286e-01 
  1.361125390794e-01 
  1.816128424583e-01 
  1.695126754280e-01 
  1.574125083977e-01 
  1.894361969434e-01 
  1.773360299131e-01 
  1.972595514284e-01 
  1.397185440548e-01 
  1.414844422133e-01 
  1.432503403719e-01 
  1.143508500218e-01 
  1.161167481804e-01 
  8.898315598887e-02 
  1.546116022399e-03 
  2.159741331032e-03 
  2.773366639665e-03 
  1.012425556180e-01 
  1.018561809266e-01 
  2.009389952136e-01 
  1.775121236099e-01 
  1.566290815874e-01 
  1.357460395649e-01 
  1.691338397847e-01 
  1.482507977622e-01 
  1.607555559594e-01 
  1.909824856099e-01 
  1.835608889053e-01 
  1.761392922008e-01 
  1.929814651937e-01 
  1.855598684892e-01 
  1.949804447776e-01 
  1.898356319531e-01 
  1.686638774715e-01 
  1.474921229899e-01 
  1.836113058297e-01 
  1.624395513481e-01 
  1.773869797064e-01 
  1.910510953923e-01 
  1.935087938640e-01 
  1.959664923358e-01 
  2.015517480312e-01 
  2.040094465030e-01 
  2.120524006701e-01 
  1.932060472012e-01 
  1.852796038048e-01 
  1.773531604085e-01 
  1.715664256147e-01 
  1.636399822184e-01 
  1.499268040282e-01 
  1.305927521505e-01 
  1.614874532340e-01 
  1.923821543176e-01 
  1.402108863284e-01 
  1.711055874120e-01 
  1.498290205063e-01 
  1.920270401295e-01 
  1.924265645737e-01 
  1.928260890180e-01 
  2.029326816960e-01 
  2.033322061402e-01 
  2.138383232625e-01 
  1.767774829730e-01 
  1.691199734713e-01 
  1.614624639696e-01 
  1.631589947119e-01 
  1.555014852102e-01 
  1.495405064507e-01 
  1.836352799793e-01 
  1.906103540094e-01 
  1.975854280394e-01 
  1.106129242560e-01 
  1.175879982860e-01 
  3.759056853263e-02 
  1.305703662274e-01 
  1.474772496057e-01 
  1.643841329840e-01 
  1.526224463973e-01 
  1.695293297756e-01 
  1.746745265671e-01 
  1.624450675479e-01 
  1.695580202746e-01 
  1.766709730014e-01 
  1.617286362676e-01 
  1.688415889943e-01 
  1.610122049873e-01 
  4.338832907285e-02 
  7.220163479696e-02 
  1.010149405211e-01 
  5.773719846653e-02 
  8.655050419064e-02 
  7.208606786020e-02 
  9.968165751138e-02 
  1.242178912449e-01 
  1.487541249784e-01 
  1.149263148272e-01 
  1.394625485607e-01 
  1.301709721430e-01 
  1.300525148416e-01 
  1.016744171144e-01 
  7.329631938725e-02 
  1.150531553248e-01 
  8.667505759766e-02 
  1.000537958081e-01 
  9.919005996249e-02 
  1.146022798108e-01 
  1.300144996591e-01 
  1.242548777408e-01 
  1.396670975892e-01 
  1.493196955192e-01 
  1.820260194652e-01 
  1.788189352642e-01 
  1.756118510632e-01 
  1.730312775242e-01 
  1.698241933232e-01 
  1.640365355833e-01 
  1.311330096832e-01 
  1.397819651419e-01 
  1.484309206006e-01 
  1.475612449636e-01 
  1.562102004223e-01 
  1.639894802440e-01 
  1.803344133602e-01 
  1.720295376315e-01 
  1.637246619027e-01 
  1.696648742143e-01 
  1.613599984855e-01 
  1.589953350684e-01 
  1.003069688684e-01 
  7.188512830114e-02 
  4.346328773383e-02 
  9.038068594081e-02 
  6.195884537351e-02 
  8.045440301318e-02 
  1.952251302474e-01 
  1.770427980033e-01 
  1.588604657591e-01 
  1.831815202023e-01 
  1.649991879581e-01 
  1.711379101571e-01 
  1.782548322960e-01 
  1.822063653878e-01 
  1.861578984795e-01 
  1.630489012086e-01 
  1.670004343004e-01 
  1.478429701212e-01 
  2.035508600983e-01 
  1.983425936343e-01 
  1.931343271702e-01 
  2.095655099931e-01 
  2.043572435291e-01 
  2.155801598879e-01 
  2.011275549540e-01 
  1.973005908124e-01 
  1.934736266709e-01 
  1.862881908553e-01 
  1.824612267137e-01 
  1.714488267566e-01 
  1.812491031811e-01 
  1.971058419272e-01 
  2.129625806733e-01 
  1.783126533899e-01 
  1.941693921360e-01 
  1.753762035987e-01 
  2.136831405257e-01 
  1.974588055986e-01 
  1.812344706716e-01 
  2.049445451340e-01 
  1.887202102070e-01 
  1.962059497424e-01 
  2.462275695681e-01 
  2.309828881132e-01 
  2.157382066584e-01 
  2.200171208492e-01 
  2.047724393944e-01 
  1.938066721304e-01 
  1.777058222769e-01 
  1.761536672357e-01 
  1.746015121945e-01 
  1.968503041594e-01 
  1.952981491182e-01 
  2.159947860419e-01 
  1.924874968236e-01 
  1.973480698206e-01 
  2.022086428177e-01 
  2.195462272598e-01 
  2.244068002568e-01 
  2.466049576959e-01 
  2.027297623890e-01 
  1.872121658292e-01 
  1.716945692694e-01 
  1.976314234081e-01 
  1.821138268483e-01 
  1.925330844273e-01 
  2.601599079888e-01 
  2.541186024202e-01 
  2.480772968517e-01 
  2.317347300709e-01 
  2.256934245024e-01 
  2.033095521530e-01 
  1.191413012330e-03 
  1.066344399713e-01 
  2.120774669302e-01 
  9.456449961167e-04 
  1.063886719551e-01 
  6.998769799029e-04 
  2.512805606730e-01 
  2.315006098234e-01 
  2.117206589737e-01 
  2.273406848972e-01 
  2.075607340475e-01 
  2.034008091213e-01 
  2.125665732388e-01 
  2.316556315996e-01 
  2.507446899605e-01 
  2.358515804173e-01 
  2.549406387782e-01 
  2.591365875958e-01 
  2.025632292803e-01 
  2.071532806386e-01 
  2.117433319970e-01 
  1.030149855555e-01 
  1.076050369139e-01 
  3.466741830815e-03 
  2.485908040566e-01 
  2.272680475159e-01 
  2.059452909752e-01 
  2.330033031198e-01 
  2.116805465791e-01 
  2.174158021829e-01 
  2.479608685504e-01 
  2.295019598654e-01 
  2.110430511805e-01 
  2.532173737129e-01 
  2.347584650280e-01 
  2.584738788755e-01 
  2.585986971592e-01 
  2.313972703725e-01 
  2.041958435858e-01 
  2.357044197868e-01 
  2.085029930001e-01 
  2.128101424144e-01 
  1.929111450592e-01 
  1.936921605961e-01 
  1.944731761331e-01 
  2.041731449386e-01 
  2.049541604756e-01 
  2.154351448181e-01 
  1.768403032299e-01 
  1.976527095732e-01 
  2.184651159165e-01 
  1.909266621349e-01 
  2.117390684783e-01 
  2.050130210400e-01 
 -1.063581821056e-03 
  3.703244027688e-02 
  7.512846237481e-02 
  1.391401336847e-03 
  3.948742343478e-02 
  3.846384494749e-03 
  7.424196736681e-02 
  1.015499320719e-01 
  1.288578967771e-01 
  1.027562253235e-01 
  1.300641900286e-01 
  1.312704832802e-01 
  1.670659630132e-01 
  8.671402979721e-02 
  6.362096581246e-03 
  8.298438785542e-02 
  2.632454639464e-03 
 -1.097187302318e-03 
 -2.026976898548e-03 
  6.370258810760e-03 
  1.476749452007e-02 
  2.036912862915e-02 
  2.876636433846e-02 
  4.276523415685e-02 
  4.340613605764e-04 
 -1.318274517947e-03 
 -3.070610396471e-03 
  3.534137946460e-02 
  3.358904358608e-02 
  7.024869756863e-02 
  1.535558949364e-01 
  7.805830013658e-02 
  2.560705336737e-03 
  1.258722238544e-01 
  5.037462905452e-02 
  9.818855277230e-02 
  7.482039878712e-02 
  1.042396714309e-01 
  1.336589440746e-01 
  3.994368111278e-02 
  6.936295375654e-02 
  5.066963438434e-03 
 -3.711276472062e-03 
  1.957187522198e-02 
  4.285502691602e-02 
  3.325560017202e-02 
  5.653875186606e-02 
  7.022247681611e-02 
  1.573360386893e-03 
  1.673416632297e-03 
  1.773472877702e-03 
  1.031742539630e-01 
  1.032743102084e-01 
  2.047751475391e-01 
  2.230632481819e-03 
  1.081407330510e-01 
  2.140508336201e-01 
  2.083249072197e-03 
  1.079933496413e-01 
  1.935865662575e-03 
  2.033517762499e-01 
  1.057581442324e-01 
  8.164512214767e-03 
  1.911523565880e-01 
  9.355872457040e-02 
  1.789529369260e-01 
  9.994448542356e-04 
  6.961112646100e-02 
  1.382228080678e-01 
  2.576131524136e-03 
  7.118781313090e-02 
  4.152818194037e-03 
  4.014487507721e-03 
  9.049415631208e-02 
  1.769738251164e-01 
  1.036701880210e-01 
  1.901498568253e-01 
  2.033258885342e-01 
  1.937233327901e-01 
  1.003535716784e-01 
  6.983810566783e-03 
  1.945835959880e-01 
  1.012138348764e-01 
  1.954438591860e-01 
  1.440775700709e-01 
  7.264861389558e-02 
  1.219657720247e-03 
  7.341038817232e-02 
  1.981431996978e-03 
  2.743206273710e-03 
  6.728328162473e-03 
  7.153436555580e-02 
  1.363404029491e-01 
  9.138007222566e-02 
  1.561861096190e-01 
  1.760318162889e-01 
  1.333399325057e-01 
  1.543545805651e-01 
  1.753692286246e-01 
  1.550668093537e-01 
  1.760814574131e-01 
  1.767936862016e-01 
  1.747500480357e-01 
  9.073253094269e-02 
  6.715013849690e-03 
  1.828686529630e-01 
  9.885113586997e-02 
  1.909872578902e-01 
  2.573289075577e-01 
  2.350060262277e-01 
  2.126831448977e-01 
  2.341853785107e-01 
  2.118624971807e-01 
  2.110418494637e-01 
  1.316819425873e-01 
  1.301347521839e-01 
  1.285875617804e-01 
  1.536055892178e-01 
  1.520583988144e-01 
  1.755292358483e-01 
  9.838189124595e-04 
  2.598270290846e-03 
  4.212721669233e-03 
  8.939864316492e-02 
  9.101309454331e-02 
  1.778134674174e-01 
  1.315298373865e-02 
  6.127936860266e-03 
 -8.971100181182e-04 
  5.871072751150e-03 
 -1.153974127234e-03 
 -1.410838236350e-03 
  1.889914028777e-01 
  1.901080296877e-01 
  1.912246564977e-01 
  1.692777556124e-01 
  1.703943824224e-01 
  1.495641083471e-01 
  1.948378898507e-01 
  2.030867980369e-01 
  2.113357062232e-01 
  2.039708135591e-01 
  2.122197217453e-01 
  2.131037372674e-01 
  2.102976226958e-01 
  1.999627312862e-01 
  1.896278398766e-01 
  2.003737769573e-01 
  1.900388855477e-01 
  1.904499312188e-01 
  1.882776231301e-01 
  1.994495842368e-01 
  2.106215453436e-01 
  1.900803398370e-01 
  2.012523009437e-01 
  1.918830565439e-01 
  1.901437947542e-01 
  1.905027999391e-01 
  1.908618051239e-01 
  1.689595448750e-01 
  1.693185500599e-01 
  1.477752949958e-01 
  2.236523904819e-02 
  1.018256384411e-02 
 -2.000111359974e-03 
  1.055197809404e-01 
  9.333710573627e-02 
  1.886743228325e-01 
  1.914172051808e-01 
  1.612901787124e-01 
  1.311631522440e-01 
  1.703260172011e-01 
  1.401989907327e-01 
  1.492348292214e-01 
  1.910599748030e-01 
  1.911652207685e-01 
  1.912704667340e-01 
  1.608336835524e-01 
  1.609389295179e-01 
  1.306073923018e-01 
  9.754509904572e-02 
  1.229945070559e-01 
  1.484439150662e-01 
  1.141650437095e-01 
  1.396144517197e-01 
  1.307849883733e-01 
  1.383873063113e-01 
  1.179258097603e-01 
  9.746431320937e-02 
  1.096068920969e-01 
  8.914539554591e-02 
  8.082647788246e-02 
  1.469964297729e-01 
  1.417353747781e-01 
  1.364743197833e-01 
  1.532425830948e-01 
  1.479815281000e-01 
  1.594887364168e-01 
  1.360791821193e-01 
  1.415591995660e-01 
  1.470392170126e-01 
  1.170636946363e-01 
  1.225437120829e-01 
  9.804820715321e-02 
  1.796081564366e-01 
  1.693182734251e-01 
  1.590283904136e-01 
  1.806875895549e-01 
  1.703977065434e-01 
  1.817670226731e-01 
  1.489239546535e-01 
  1.536100841213e-01 
  1.582962135891e-01 
  1.689577318371e-01 
  1.736438613049e-01 
  1.889915090207e-01 
  9.786663742597e-02 
  8.896632863868e-02 
  8.006601985138e-02 
  7.013722827882e-02 
  6.123691949152e-02 
  4.240781913166e-02 
  9.728325356796e-02 
  1.140716687089e-01 
  1.308600838498e-01 
  8.903914592007e-02 
  1.058275610610e-01 
  8.079503827217e-02 
  1.302906839364e-01 
  1.146454317996e-01 
  9.900017966280e-02 
  1.056859093164e-01 
  9.004065717960e-02 
  8.108113469640e-02 
  1.888229199839e-01 
  1.739827449908e-01 
  1.591425699976e-01 
  1.782620842346e-01 
  1.634219092415e-01 
  1.677012484854e-01 
  1.462110573986e-01 
  1.417693302421e-01 
  1.373276030855e-01 
  1.145910840329e-01 
  1.101493568764e-01 
  8.297111066721e-02 
  1.467471364256e-01 
  1.688690941422e-01 
  1.909910518588e-01 
  1.430090891933e-01 
  1.651310469099e-01 
  1.392710419610e-01 
  8.209684684153e-02 
  9.023775374532e-02 
  9.837866064910e-02 
  4.114927907641e-02 
  4.929018598020e-02 
  2.017113112930e-04 
  1.001536104133e-01 
  9.090630881808e-02 
  8.165900722283e-02 
  1.196330564951e-01 
  1.103857548999e-01 
  1.391125025769e-01 
  1.615255753951e-01 
  8.362857685753e-02 
  5.731578319923e-03 
  8.059867695470e-02 
  2.701678417095e-03 
 -3.282214857334e-04 
  1.653149700936e-02 
  9.150297196185e-03 
  1.769097383008e-03 
  1.058396240746e-01 
  9.845842426140e-02 
  1.951477511398e-01 
  1.409782588650e-01 
  1.441454251914e-01 
  1.473125915178e-01 
  1.208057380665e-01 
  1.239729043929e-01 
  1.006332172680e-01 
  1.780033879602e-01 
  8.769985871177e-02 
 -2.603670536707e-03 
  9.849955470383e-02 
  8.196025455352e-03 
  1.899572144741e-02 
  1.636595562190e-01 
  1.707587461184e-01 
  1.778579360177e-01 
  1.628784189696e-01 
  1.699776088689e-01 
  1.620972817202e-01 
  1.773659588560e-01 
  1.715815380594e-01 
  1.657971172628e-01 
  1.688110221624e-01 
  1.630266013657e-01 
  1.602560854687e-01 
  1.428717409542e-01 
  1.537397394272e-01 
  1.646077379001e-01 
  1.488481839734e-01 
  1.597161824463e-01 
  1.548246269925e-01 
  1.611756648958e-01 
  1.528417165649e-01 
  1.445077682340e-01 
  1.627687101212e-01 
  1.544347617903e-01 
  1.643617553466e-01 
  1.575180712193e-01 
  1.619635208544e-01 
  1.664089704896e-01 
  1.706456760907e-01 
  1.750911257259e-01 
  1.837732809621e-01 
  1.456547513173e-01 
  1.485401520948e-01 
  1.514255528723e-01 
  1.226621690769e-01 
  1.255475698543e-01 
  9.966958683638e-02 
  1.780554070748e-01 
  1.872386602459e-01 
  1.964219134170e-01 
  1.710891384914e-01 
  1.802723916625e-01 
  1.641228699079e-01 
  1.667010087589e-01 
  1.560205388233e-01 
  1.453400688876e-01 
  1.547622886901e-01 
  1.440818187544e-01 
  1.428235686212e-01 
  1.897045569388e-01 
  1.787690728581e-01 
  1.678335887774e-01 
  1.658525609624e-01 
  1.549170768817e-01 
  1.420005649860e-01 
  1.605645224930e-01 
  1.712982547803e-01 
  1.820319870676e-01 
  8.494403205675e-02 
  9.567776434406e-02 
  9.323541620495e-03 
  1.586417812771e-01 
  1.480764848687e-01 
  1.375111884602e-01 
  1.699784324465e-01 
  1.594131360381e-01 
  1.813150836159e-01 
  5.012558592676e-02 
  1.240039893402e-01 
  1.978823927535e-01 
  1.066555852384e-01 
  1.805339886518e-01 
  1.631855845500e-01 
  1.424458761470e-02 
  6.718127404605e-03 
 -8.083328054923e-04 
  2.852990335167e-02 
  2.100344314157e-02 
  4.281521908863e-02 
  1.299967711274e-02 
  5.700870888500e-03 
 -1.597935335744e-03 
  6.295112651937e-03 
 -1.003693572306e-03 
 -4.094518088688e-04 
  4.338124711346e-02 
  2.209349085302e-02 
  8.057345925704e-04 
  6.100871815452e-02 
  3.972096189408e-02 
  7.863618919559e-02 
  1.213692466757e-01 
  1.004166729564e-01 
  7.946409923708e-02 
  6.014756548804e-02 
  3.919499176873e-02 
 -1.074115699624e-03 
  1.247388370978e-01 
  1.537618912813e-01 
  1.827849454649e-01 
  1.318224079025e-01 
  1.608454620860e-01 
  1.389059787071e-01 
  1.233391626376e-01 
  1.316544760466e-01 
  1.399697894556e-01 
  1.017622854411e-01 
  1.100775988501e-01 
  8.018540824458e-02 
  8.904520881391e-04 
  2.216481551326e-02 
  4.343917893838e-02 
  9.231521205492e-05 
  2.136667863717e-02 
 -7.058216640293e-04 
  9.812454876185e-02 
  7.048920078435e-02 
  4.285385280685e-02 
  8.894397393193e-02 
  6.130862595444e-02 
  7.976339910202e-02 
 -8.006838908568e-04 
  3.381641709059e-04 
  1.477012232669e-03 
  6.046478748075e-02 
  6.160363554252e-02 
  1.217302588524e-01 
  1.982316504230e-01 
  1.021996704022e-01 
  6.167690381450e-03 
  1.890730017823e-01 
  9.304102176150e-02 
  1.799143531415e-01 
  1.715434499040e-01 
  1.281729736193e-01 
  8.480249733451e-02 
  1.756027088940e-01 
  1.322322326092e-01 
  1.796619678839e-01 
  8.281711546013e-02 
  4.249995149666e-02 
  2.182787533186e-03 
  8.391117499000e-02 
  4.359401102653e-02 
  8.500523451988e-02 
  1.832354652000e-01 
  9.213273212063e-02 
  1.029999041231e-03 
  9.381338464495e-02 
  2.710651565550e-03 
  4.391304089869e-03 
  1.783493052798e-01 
  8.859573371312e-02 
 -1.157837853598e-03 
  9.064687885935e-02 
  8.933072926323e-04 
  2.944452438863e-03 
  1.673747955408e-01 
  8.621130971607e-02 
  5.047823891297e-03 
  1.558881534268e-01 
  7.472466760199e-02 
  1.444015113127e-01 
  1.215189456687e-01 
  6.078014699686e-02 
  4.134832502864e-05 
  1.483562991235e-01 
  8.761750045162e-02 
  1.751936525782e-01 
  1.593358087307e-01 
  1.666371089332e-01 
  1.739384091357e-01 
  1.670325727482e-01 
  1.743338729507e-01 
  1.747293367657e-01 
  2.102756432369e-01 
  1.061525073680e-01 
  2.029371499050e-03 
  1.064124271914e-01 
  2.289291322446e-03 
  2.549211145842e-03 
  1.818509817981e-01 
  1.791815769408e-01 
  1.765121720835e-01 
  1.999722640707e-01 
  1.973028592134e-01 
  2.180935463433e-01 
  1.747105317338e-01 
  1.790110150924e-01 
  1.833114984511e-01 
  1.489866108581e-01 
  1.532870942168e-01 
  1.232626899825e-01 
  1.988290845031e-01 
  1.892801588124e-01 
  1.797312331218e-01 
  1.963512145120e-01 
  1.868022888214e-01 
  1.938733445210e-01 
  1.817375215136e-01 
  1.743129046359e-01 
  1.668882877581e-01 
  1.879057814337e-01 
  1.804811645560e-01 
  1.940740413538e-01 
  1.966619980649e-01 
  1.876389355708e-01 
  1.786158730766e-01 
  2.070284725831e-01 
  1.980054100890e-01 
  2.173949471013e-01 
  2.182057803268e-01 
  2.339439929977e-01 
  2.496822056686e-01 
  2.068935216869e-01 
  2.226317343578e-01 
  1.955812630471e-01 
  2.181447084821e-01 
  1.980898493616e-01 
  1.780349902412e-01 
  2.125619667283e-01 
  1.925071076079e-01 
  2.069792249746e-01 
  1.819032002829e-01 
  1.992831101571e-01 
  2.166630200313e-01 
  1.804424775219e-01 
  1.978223873961e-01 
  1.789817547608e-01 
  2.066624587152e-01 
  2.085808177126e-01 
  2.104991767101e-01 
  2.297146755471e-01 
  2.316330345446e-01 
  2.527668923791e-01 
  2.072449838827e-01 
  1.941996010164e-01 
  1.811542181501e-01 
  1.069788225045e-01 
  9.393343963819e-02 
  6.712661126296e-03 
  2.037388874082e-01 
  2.273832096894e-01 
  2.510275319706e-01 
  2.305987754299e-01 
  2.542430977111e-01 
  2.574586634516e-01 
  2.504869396783e-01 
  2.263714268970e-01 
  2.022559141157e-01 
  2.223575930832e-01 
  1.982420803019e-01 
  1.942282464881e-01 
  2.023083958595e-01 
  2.020367771461e-01 
  2.017651584327e-01 
  2.103057537099e-01 
  2.100341349965e-01 
  2.183031115602e-01 
  2.002627652673e-01 
  2.011260680233e-01 
  2.019893707793e-01 
  1.893153394518e-01 
  1.901786422078e-01 
  1.783679136363e-01 
  2.557999012168e-01 
  2.541248679984e-01 
  2.524498347799e-01 
  2.333130541515e-01 
  2.316380209331e-01 
  2.108262070862e-01 
  2.072380307905e-01 
  2.289608228797e-01 
  2.506836149690e-01 
  2.124134597472e-01 
  2.341362518364e-01 
  2.175888887039e-01 
  5.621162249935e-03 
  1.076397749495e-01 
  2.096583876491e-01 
  1.069324368906e-01 
  2.089510495902e-01 
  2.082437115312e-01 