# vtk DataFile Version 2
NuDG++ 2D simulation
ASCII
DATASET UNSTRUCTURED_GRID

POINTS 2244 double
 -1.656250060000e-01  -2.000000030000e-01  0.0
 -1.828125045000e-01  -1.772221997500e-01  0.0
 -2.000000030000e-01  -1.544443965000e-01  0.0
 -1.828125045000e-01  -2.000000030000e-01  0.0
 -2.000000030000e-01  -1.772221997500e-01  0.0
 -2.000000030000e-01  -2.000000030000e-01  0.0
 -6.428571790000e-02  -1.700000018000e-01  0.0
 -8.058035746000e-02  -1.850000024000e-01  0.0
 -9.687499702000e-02  -2.000000030000e-01  0.0
 -6.339285895000e-02  -1.850000024000e-01  0.0
 -7.968749851000e-02  -2.000000030000e-01  0.0
 -6.250000000000e-02  -2.000000030000e-01  0.0
 -2.000000030000e-01  -1.544443965000e-01  0.0
 -1.750000045000e-01  -1.379364989500e-01  0.0
 -1.500000060000e-01  -1.214286014000e-01  0.0
 -2.000000030000e-01  -1.316666491500e-01  0.0
 -1.750000045000e-01  -1.151587516000e-01  0.0
 -2.000000030000e-01  -1.088889018000e-01  0.0
 -1.500000060000e-01  -1.214286014000e-01  0.0
 -1.750000045000e-01  -1.379364989500e-01  0.0
 -2.000000030000e-01  -1.544443965000e-01  0.0
 -1.500000060000e-01  -1.457143016000e-01  0.0
 -1.750000045000e-01  -1.622221991500e-01  0.0
 -1.500000060000e-01  -1.700000018000e-01  0.0
 -1.500000060000e-01  -7.285714149000e-02  0.0
 -1.750000045000e-01  -9.087302164500e-02  0.0
 -2.000000030000e-01  -1.088889018000e-01  0.0
 -1.500000060000e-01  -9.714287144500e-02  0.0
 -1.750000045000e-01  -1.151587516000e-01  0.0
 -1.500000060000e-01  -1.214286014000e-01  0.0
  1.832975030000e+00  -4.625000060000e-02  0.0
  1.853987515000e+00  -1.231250018000e-01  0.0
  1.875000000000e+00  -2.000000030000e-01  0.0
  1.916487515000e+00  -7.187499851000e-02  0.0
  1.937500000000e+00  -1.487499997100e-01  0.0
  2.000000000000e+00  -9.749999642000e-02  0.0
 -1.500000060000e-01  -1.700000018000e-01  0.0
 -1.360000037000e-01  -1.525000036000e-01  0.0
 -1.220000014000e-01  -1.350000054000e-01  0.0
 -1.500000060000e-01  -1.457143016000e-01  0.0
 -1.360000037000e-01  -1.282143034000e-01  0.0
 -1.500000060000e-01  -1.214286014000e-01  0.0
  2.849999964000e-01  -2.333333530000e-02  0.0
  2.837499976000e-01  -8.166666795000e-02  0.0
  2.824999988000e-01  -1.400000006000e-01  0.0
  3.174999952000e-01  -4.666666780000e-02  0.0
  3.162499964000e-01  -1.050000004500e-01  0.0
  3.499999940000e-01  -7.000000030000e-02  0.0
 -1.071429029000e-01  -1.700000018000e-01  0.0
 -8.571431040000e-02  -1.700000018000e-01  0.0
 -6.428571790000e-02  -1.700000018000e-01  0.0
 -9.857145324000e-02  -1.525000036000e-01  0.0
 -7.714286074000e-02  -1.525000036000e-01  0.0
 -9.000000358000e-02  -1.350000054000e-01  0.0
 -1.312499940000e-01  -2.000000030000e-01  0.0
 -1.191964484500e-01  -1.850000024000e-01  0.0
 -1.071429029000e-01  -1.700000018000e-01  0.0
 -1.406250000000e-01  -1.850000024000e-01  0.0
 -1.285714544500e-01  -1.700000018000e-01  0.0
 -1.500000060000e-01  -1.700000018000e-01  0.0
 -1.220000014000e-01  -1.350000054000e-01  0.0
 -1.060000024900e-01  -1.350000054000e-01  0.0
 -9.000000358000e-02  -1.350000054000e-01  0.0
 -1.185000017500e-01  -1.175000034500e-01  0.0
 -1.025000028400e-01  -1.175000034500e-01  0.0
 -1.150000021000e-01  -1.000000015000e-01  0.0
 -9.000000358000e-02  -1.350000054000e-01  0.0
 -1.060000024900e-01  -1.350000054000e-01  0.0
 -1.220000014000e-01  -1.350000054000e-01  0.0
 -9.857145324000e-02  -1.525000036000e-01  0.0
 -1.145714521500e-01  -1.525000036000e-01  0.0
 -1.071429029000e-01  -1.700000018000e-01  0.0
 -7.778175920000e-02  -9.192386270000e-02  0.0
 -9.639088065000e-02  -9.596193210000e-02  0.0
 -1.150000021000e-01  -1.000000015000e-01  0.0
 -8.389088139000e-02  -1.134619340500e-01  0.0
 -1.025000028400e-01  -1.175000034500e-01  0.0
 -9.000000358000e-02  -1.350000054000e-01  0.0
 -1.220000014000e-01  -1.350000054000e-01  0.0
 -1.185000017500e-01  -1.175000034500e-01  0.0
 -1.150000021000e-01  -1.000000015000e-01  0.0
 -1.360000037000e-01  -1.282143034000e-01  0.0
 -1.325000040500e-01  -1.107143014500e-01  0.0
 -1.500000060000e-01  -1.214286014000e-01  0.0
 -7.778175920000e-02  -9.192386270000e-02  0.0
 -8.389088139000e-02  -1.134619340500e-01  0.0
 -9.000000358000e-02  -1.350000054000e-01  0.0
 -6.639088876500e-02  -1.022535823500e-01  0.0
 -7.250001095500e-02  -1.237916537000e-01  0.0
 -5.500001833000e-02  -1.125833020000e-01  0.0
 -1.071429029000e-01  -1.700000018000e-01  0.0
 -1.145714521500e-01  -1.525000036000e-01  0.0
 -1.220000014000e-01  -1.350000054000e-01  0.0
 -1.285714544500e-01  -1.700000018000e-01  0.0
 -1.360000037000e-01  -1.525000036000e-01  0.0
 -1.500000060000e-01  -1.700000018000e-01  0.0
  6.250000093000e-03  -2.000000030000e-01  0.0
  4.062500153650e-02  -2.000000030000e-01  0.0
  7.500000298000e-02  -2.000000030000e-01  0.0
  1.383928512150e-02  -1.850000024000e-01  0.0
  4.821428656500e-02  -1.850000024000e-01  0.0
  2.142857015000e-02  -1.700000018000e-01  0.0
 -1.500000060000e-01  -7.285714149000e-02  0.0
 -1.500000060000e-01  -9.714287144500e-02  0.0
 -1.500000060000e-01  -1.214286014000e-01  0.0
 -1.325000040500e-01  -8.642857149500e-02  0.0
 -1.325000040500e-01  -1.107143014500e-01  0.0
 -1.150000021000e-01  -1.000000015000e-01  0.0
 -2.000000030000e-01  -6.333333254000e-02  0.0
 -1.750000045000e-01  -6.809523701500e-02  0.0
 -1.500000060000e-01  -7.285714149000e-02  0.0
 -1.750000045000e-01  -4.380952660000e-02  0.0
 -1.500000060000e-01  -4.857143107500e-02  0.0
 -1.500000060000e-01  -2.428572066000e-02  0.0
 -2.000000030000e-01  -6.333333254000e-02  0.0
 -2.000000030000e-01  -8.611111717000e-02  0.0
 -2.000000030000e-01  -1.088889018000e-01  0.0
 -1.750000045000e-01  -6.809523701500e-02  0.0
 -1.750000045000e-01  -9.087302164500e-02  0.0
 -1.500000060000e-01  -7.285714149000e-02  0.0
 -2.000000030000e-01  -6.333333254000e-02  0.0
 -1.750000045000e-01  -4.380952660000e-02  0.0
 -1.500000060000e-01  -2.428572066000e-02  0.0
 -2.000000030000e-01  -4.055555630500e-02  0.0
 -1.750000045000e-01  -2.103175036500e-02  0.0
 -2.000000030000e-01  -1.777778007000e-02  0.0
 -1.500000060000e-01  -2.428572066000e-02  0.0
 -1.500000060000e-01  -4.857143107500e-02  0.0
 -1.500000060000e-01  -7.285714149000e-02  0.0
 -1.281259023000e-01  -2.896608505500e-02  0.0
 -1.281259023000e-01  -5.325179547000e-02  0.0
 -1.062517986000e-01  -3.364644945000e-02  0.0
 -1.099999994000e-01   1.996667010000e-08  0.0
 -1.300000027000e-01  -1.214285034666e-02  0.0
 -1.500000060000e-01  -2.428572066000e-02  0.0
 -1.081258990000e-01  -1.682321474166e-02  0.0
 -1.281259023000e-01  -2.896608505500e-02  0.0
 -1.062517986000e-01  -3.364644945000e-02  0.0
 -1.500000060000e-01  -2.428572066000e-02  0.0
 -1.500000060000e-01   0.000000000000e+00  0.0
 -1.500000060000e-01   2.428572066000e-02  0.0
 -1.750000045000e-01  -2.103175036500e-02  0.0
 -1.750000045000e-01   3.253970295000e-03  0.0
 -2.000000030000e-01  -1.777778007000e-02  0.0
 -1.500000060000e-01  -7.285714149000e-02  0.0
 -1.226314045700e-01  -6.892856210000e-02  0.0
 -9.526280314000e-02  -6.499998271000e-02  0.0
 -1.281259023000e-01  -5.325179547000e-02  0.0
 -1.007573008700e-01  -4.932321608000e-02  0.0
 -1.062517986000e-01  -3.364644945000e-02  0.0
  3.499999940000e-01   1.400000006000e-01  0.0
  4.021931737500e-01   1.224999986500e-01  0.0
  4.543863535000e-01   1.049999967000e-01  0.0
  4.187500029500e-01   1.749999970000e-01  0.0
  4.709431827000e-01   1.574999950500e-01  0.0
  4.875000119000e-01   2.099999934000e-01  0.0
 -7.101409137000e-02  -4.349999130000e-02  0.0
 -8.313844725500e-02  -5.424998700500e-02  0.0
 -9.526280314000e-02  -6.499998271000e-02  0.0
 -6.449843011500e-02  -5.250913650000e-02  0.0
 -7.662278600000e-02  -6.325913220500e-02  0.0
 -5.798276886000e-02  -6.151828170000e-02  0.0
 -9.526280314000e-02  -6.499998271000e-02  0.0
 -1.226314045700e-01  -6.892856210000e-02  0.0
 -1.500000060000e-01  -7.285714149000e-02  0.0
 -1.051314026200e-01  -8.249999210500e-02  0.0
 -1.325000040500e-01  -8.642857149500e-02  0.0
 -1.150000021000e-01  -1.000000015000e-01  0.0
 -6.181925908000e-02  -1.656441018000e-02  0.0
 -7.051259093000e-02  -1.954082492500e-02  0.0
 -7.920592278000e-02  -2.251723967000e-02  0.0
 -5.862244405000e-02  -2.428220026000e-02  0.0
 -6.731577590000e-02  -2.725861500500e-02  0.0
 -5.542562902000e-02  -3.199999034000e-02  0.0
 -7.920592278000e-02  -2.251723967000e-02  0.0
 -9.272886069000e-02  -2.808184456000e-02  0.0
 -1.062517986000e-01  -3.364644945000e-02  0.0
 -7.511000707500e-02  -3.300861548500e-02  0.0
 -8.863294498500e-02  -3.857322037500e-02  0.0
 -7.101409137000e-02  -4.349999130000e-02  0.0
 -7.101409137000e-02  -4.349999130000e-02  0.0
 -6.321986019500e-02  -3.774999082000e-02  0.0
 -5.542562902000e-02  -3.199999034000e-02  0.0
 -7.511000707500e-02  -3.300861548500e-02  0.0
 -6.731577590000e-02  -2.725861500500e-02  0.0
 -7.920592278000e-02  -2.251723967000e-02  0.0
 -7.920592278000e-02  -2.251723967000e-02  0.0
 -9.460296109000e-02  -1.125860985166e-02  0.0
 -1.099999994000e-01   1.996667010000e-08  0.0
 -9.272886069000e-02  -2.808184456000e-02  0.0
 -1.081258990000e-01  -1.682321474166e-02  0.0
 -1.062517986000e-01  -3.364644945000e-02  0.0
 -7.778175920000e-02  -9.192386270000e-02  0.0
 -6.788226403000e-02  -7.672107220000e-02  0.0
 -5.798276886000e-02  -6.151828170000e-02  0.0
 -8.652228117000e-02  -7.846192270500e-02  0.0
 -7.662278600000e-02  -6.325913220500e-02  0.0
 -9.526280314000e-02  -6.499998271000e-02  0.0
 -7.101409137000e-02  -4.349999130000e-02  0.0
 -8.863294498500e-02  -3.857322037500e-02  0.0
 -1.062517986000e-01  -3.364644945000e-02  0.0
 -8.313844725500e-02  -5.424998700500e-02  0.0
 -1.007573008700e-01  -4.932321608000e-02  0.0
 -9.526280314000e-02  -6.499998271000e-02  0.0
 -7.778175920000e-02  -9.192386270000e-02  0.0
 -8.652228117000e-02  -7.846192270500e-02  0.0
 -9.526280314000e-02  -6.499998271000e-02  0.0
 -9.639088065000e-02  -9.596193210000e-02  0.0
 -1.051314026200e-01  -8.249999210500e-02  0.0
 -1.150000021000e-01  -1.000000015000e-01  0.0
[...]
POINT_DATA 2244
SCALARS field1 double 1
LOOKUP_TABLE default
  2.277750036666e-03 
  2.346632844508e-02 
  4.465490685350e-02 
  1.409452058886e-03 
  2.259803046730e-02 
  5.411540811050e-04 
  9.819123091475e-02 
  4.983316983598e-02 
  1.475108757201e-03 
  4.962467795262e-02 
  1.266616873845e-03 
  1.058124990489e-03 
  4.349128391492e-02 
  5.614402305919e-02 
  6.879676220346e-02 
  6.037382727348e-02 
  7.302656641775e-02 
  7.725637063205e-02 
  6.971739457216e-02 
  5.589336328056e-02 
  4.206933198896e-02 
  6.083687297070e-02 
  4.701284167910e-02 
  5.195635136924e-02 
  9.240967984400e-02 
  8.490834675639e-02 
  7.740701366878e-02 
  8.125864482422e-02 
  7.375731173661e-02 
  7.010760980444e-02 
  1.069281917820e-01 
  7.633410455413e-02 
  4.574001732627e-02 
  1.030123180559e-01 
  7.241823082802e-02 
  9.909644432977e-02 
  5.396800344726e-02 
  6.697654378179e-02 
  7.998508411631e-02 
  6.226786815134e-02 
  7.527640848586e-02 
  7.056773285542e-02 
  8.162540528038e-02 
  8.892829155441e-02 
  9.623117782845e-02 
  8.348721414201e-02 
  9.079010041604e-02 
  8.534902300363e-02 
  8.134839354566e-02 
  8.835345779329e-02 
  9.535852204093e-02 
  8.202541205430e-02 
  8.903047630193e-02 
  8.270243056294e-02 
  3.573602256440e-03 
  4.380557042058e-02 
  8.403753858471e-02 
  2.891929392484e-02 
  6.915126208897e-02 
  5.426498559323e-02 
  7.673885384426e-02 
  7.851729948268e-02 
  8.029574512110e-02 
  7.865758351482e-02 
  8.043602915323e-02 
  8.057631318537e-02 
  8.084532056691e-02 
  7.891272076411e-02 
  7.698012096130e-02 
  8.143019701180e-02 
  7.949759720900e-02 
  8.201507345669e-02 
  9.364591031217e-02 
  8.697762340884e-02 
  8.030933650551e-02 
  8.748022926142e-02 
  8.081194235809e-02 
  8.131454821067e-02 
  7.761630143177e-02 
  7.954393298334e-02 
  8.147156453490e-02 
  7.490748915520e-02 
  7.683512070677e-02 
  7.219867687863e-02 
  9.359334974216e-02 
  8.835426939450e-02 
  8.311518904683e-02 
  9.655372522562e-02 
  9.131464487796e-02 
  9.951410070908e-02 
  8.219387226107e-02 
  8.036056833565e-02 
  7.852726441022e-02 
  6.861583296725e-02 
  6.678252904182e-02 
  5.503779367342e-02 
  1.312878195426e-03 
  1.943448421619e-03 
  2.574018647813e-03 
  5.657473350167e-02 
  5.720530372786e-02 
  1.118365888079e-01 
  9.143145959238e-02 
  8.157958560711e-02 
  7.172771162184e-02 
  8.686149625649e-02 
  7.700962227122e-02 
  8.229153292060e-02 
  1.018036848347e-01 
  9.672685492280e-02 
  9.165002501094e-02 
  1.014327698708e-01 
  9.635593995896e-02 
  1.010618549070e-01 
  1.006808252301e-01 
  8.930976330040e-02 
  7.793870137070e-02 
  9.661519786503e-02 
  8.524413593534e-02 
  9.254957049997e-02 
  1.012449331640e-01 
  1.017411024549e-01 
  1.022372717458e-01 
  1.068878737686e-01 
  1.073840430595e-01 
  1.125308143732e-01 
  9.866813412183e-02 
  9.526047380199e-02 
  9.185281348215e-02 
  8.655346745905e-02 
  8.314580713921e-02 
  7.443880079627e-02 
  6.499335016002e-02 
  8.119217777029e-02 
  9.739100538057e-02 
  7.002400586792e-02 
  8.622283347820e-02 
  7.505466157582e-02 
  9.935361205471e-02 
  9.933813692960e-02 
  9.932266180448e-02 
  1.070107126524e-01 
  1.069952375273e-01 
  1.146678132501e-01 
  9.119476641279e-02 
  8.726654777614e-02 
  8.333832913950e-02 
  8.288498052578e-02 
  7.895676188913e-02 
  7.457519463877e-02 
  1.011144957920e-01 
  1.012339084775e-01 
  1.013533211631e-01 
  6.732081820019e-02 
  6.744023088574e-02 
  3.352714060842e-02 
  6.787362463537e-02 
  7.637435663996e-02 
  8.487508864455e-02 
  7.951662213958e-02 
  8.801735414418e-02 
  9.115961964380e-02 
  8.411830489561e-02 
  8.741720888583e-02 
  9.071611287605e-02 
  8.337325184854e-02 
  8.667215583877e-02 
  8.262819880148e-02 
  2.308045457345e-02 
  3.859694908469e-02 
  5.411344359593e-02 
  3.132198495990e-02 
  4.683847947114e-02 
  3.956351534634e-02 
  5.402864770397e-02 
  6.413887586548e-02 
  7.424910402698e-02 
  6.069576707105e-02 
  7.080599523255e-02 
  6.736288643812e-02 
  6.751108935054e-02 
  5.385522599569e-02 
  4.019936264084e-02 
  6.058969173423e-02 
  4.693382837938e-02 
  5.366829411791e-02 
  5.410006967658e-02 
  5.999903620586e-02 
  6.589800273514e-02 
  6.433299179691e-02 
  7.023195832618e-02 
  7.456591391723e-02 
  9.360119260392e-02 
  9.243232896262e-02 
  9.126346532133e-02 
  8.930548156916e-02 
  8.813661792787e-02 
  8.500977053441e-02 
  6.788946828813e-02 
  7.088026005474e-02 
  7.387105182136e-02 
  7.613667302721e-02 
  7.912746479382e-02 
  8.438387776628e-02 
  9.338292160173e-02 
  8.928865182769e-02 
  8.519438205365e-02 
  8.758890145343e-02 
  8.349463167939e-02 
  8.179488130513e-02 
  5.397305966913e-02 
  3.838512720349e-02 
  2.279719473786e-02 
  4.855957624825e-02 
  3.297164378262e-02 
  4.314609282737e-02 
  9.826304616627e-02 
  9.110837402912e-02 
  8.395370189196e-02 
  9.688697689640e-02 
  8.973230475925e-02 
  9.551090762654e-02 
  9.654433589218e-02 
  9.818193354607e-02 
  9.981953119996e-02 
  8.813015294567e-02 
  8.976775059956e-02 
  7.971596999915e-02 
  1.015860789346e-01 
  1.037420621491e-01 
  1.058980453637e-01 
  1.039966012042e-01 
  1.061525844188e-01 
  1.064071234739e-01 
  9.979164661788e-02 
  9.829044211575e-02 
  9.678923761363e-02 
  9.788334591478e-02 
  9.638214141266e-02 
  9.597504521169e-02 
  9.289588247493e-02 
  1.020442682075e-01 
  1.111926539400e-01 
  9.210741614822e-02 
  1.012558018808e-01 
  9.131894982151e-02 
  1.114993211725e-01 
  1.021864062266e-01 
  9.287349128075e-02 
  1.048549795623e-01 
  9.554206461642e-02 
  9.821063795208e-02 
  1.277564405971e-01 
  1.204889616561e-01 
  1.132214827151e-01 
  1.122089783093e-01 
  1.049414993683e-01 
  9.666151602150e-02 
  1.002274821900e-01 
  9.550712152141e-02 
  9.078676085283e-02 
  1.066985818679e-01 
  1.019782211993e-01 
  1.131696815457e-01 
  9.594422366284e-02 
  9.800054099524e-02 
  1.000568583276e-01 
  1.117628008074e-01 
  1.138191181398e-01 
  1.275813779520e-01 
  1.007115664156e-01 
  9.853899663466e-02 
  9.636642685367e-02 
  1.032939162372e-01 
  1.011213464562e-01 
  1.058762660588e-01 
  1.325225562151e-01 
  1.304908105676e-01 
  1.284590649200e-01 
  1.166612452859e-01 
  1.146294996383e-01 
  1.007999343567e-01 
  8.128136711270e-04 
  6.487431825599e-02 
  1.289358228409e-01 
  1.097322217464e-03 
  6.515882680233e-02 
  1.381830763801e-03 
  1.302794721851e-01 
  1.285817085899e-01 
  1.268839449948e-01 
  1.241035068684e-01 
  1.224057432732e-01 
  1.179275415517e-01 
  1.275370435917e-01 
  1.286972993064e-01 
  1.298575550211e-01 
  1.299557664255e-01 
  1.311160221402e-01 
  1.323744892593e-01 
  1.174298619013e-01 
  1.224234505461e-01 
  1.274170391908e-01 
  5.992755532222e-02 
  6.492114396695e-02 
  2.425248743112e-03 
  1.291448922664e-01 
  1.242526457367e-01 
  1.193603992070e-01 
  1.216851770961e-01 
  1.167929305664e-01 
  1.142254619259e-01 
  1.284789226732e-01 
  1.278894338907e-01 
  1.272999451083e-01 
  1.301397079722e-01 
  1.295502191898e-01 
  1.318004932712e-01 
  1.313832555513e-01 
  1.164551025453e-01 
  1.015269495394e-01 
  1.182376938216e-01 
  1.033095408157e-01 
  1.050921320920e-01 
  1.055435142737e-01 
  1.056082277443e-01 
  1.056729412149e-01 
  1.057740953985e-01 
  1.058388088691e-01 
  1.060046765233e-01 
  9.988535095357e-02 
  1.072896519248e-01 
  1.146939528960e-01 
  1.093993351771e-01 
  1.168036361483e-01 
  1.189133194007e-01 
 -6.439288057927e-04 
  2.039291423203e-02 
  4.142975726986e-02 
  7.718337094356e-04 
  2.180867674726e-02 
  2.187596224664e-03 
  4.093047339894e-02 
  5.394944452880e-02 
  6.696841565866e-02 
  5.724618469699e-02 
  7.026515582684e-02 
  7.356189599503e-02 
  9.592441881807e-02 
  5.118092295032e-02 
  6.437427082563e-03 
  4.757748276746e-02 
  2.833986899709e-03 
 -7.694532831457e-04 
 -8.247258636795e-04 
  3.657891601044e-03 
  8.140509065767e-03 
  1.102393111448e-02 
  1.550654857920e-02 
  2.287258809264e-02 
  1.400148768999e-04 
 -7.177493220567e-04 
 -1.575513521013e-03 
  1.939557107110e-02 
  1.853780687214e-02 
  3.865112726530e-02 
  8.994016017119e-02 
  4.675057168021e-02 
  3.560983189237e-03 
  7.431530692509e-02 
  3.112571843411e-02 
  5.869045367899e-02 
  4.127957217556e-02 
  5.802772661565e-02 
  7.477588105575e-02 
  2.207591692441e-02 
  3.882407136450e-02 
  2.872261673256e-03 
 -1.759030129823e-03 
  1.062978265258e-02 
  2.301859543498e-02 
  1.842100831962e-02 
  3.080982110202e-02 
  3.860104676906e-02 
  1.126838137192e-03 
  1.155353365280e-03 
  1.183868593367e-03 
  6.007685059789e-02 
  6.010536582598e-02 
  1.190268630586e-01 
  1.345299718092e-03 
  6.530830867592e-02 
  1.292713176337e-01 
  1.363711037154e-03 
  6.532671999498e-02 
  1.382122356215e-03 
  1.126773735142e-01 
  6.031797198217e-02 
  7.958570450159e-03 
  1.051246454723e-01 
  5.276524394032e-02 
  9.757191743048e-02 
  5.263082590730e-04 
  3.887627190132e-02 
  7.722623554357e-02 
  1.455515926513e-03 
  3.980547956876e-02 
  2.384723593953e-03 
  2.594748110700e-03 
  5.127280949172e-02 
  9.995087087274e-02 
  6.035242596818e-02 
  1.090304873492e-01 
  1.181101038257e-01 
  1.062888349607e-01 
  5.592658972624e-02 
  5.564344491824e-03 
  1.065146150495e-01 
  5.615236981505e-02 
  1.067403951383e-01 
  8.595940241911e-02 
  4.387282310534e-02 
  1.786243791575e-03 
  4.393063076749e-02 
  1.844051453728e-03 
  1.901859115882e-03 
  3.962190771420e-03 
  4.002908730745e-02 
  7.609598384349e-02 
  5.160195276581e-02 
  8.766884930185e-02 
  9.924171476020e-02 
  7.463961587478e-02 
  8.300339147975e-02 
  9.136716708472e-02 
  8.711598167109e-02 
  9.547975727606e-02 
  9.959234746740e-02 
  9.855930594994e-02 
  5.215601127254e-02 
  5.752716595144e-03 
  1.019945570200e-01 
  5.559126234265e-02 
  1.054298080902e-01 
  1.308406991803e-01 
  1.179241597497e-01 
  1.050076203191e-01 
  1.167798567403e-01 
  1.038633173097e-01 
  1.027190143002e-01 
  7.374719283343e-02 
  7.029853874834e-02 
  6.684988466325e-02 
  8.264954723527e-02 
  7.920089315018e-02 
  9.155190163711e-02 
  7.705775572216e-04 
  2.147193166917e-03 
  3.523808776613e-03 
  5.081891405344e-02 
  5.219552966314e-02 
  1.008672505497e-01 
  7.291502826767e-03 
  3.473787944081e-03 
 -3.439269386055e-04 
  3.224121611449e-03 
 -5.935932712371e-04 
 -8.432596038686e-04 
  9.713741637953e-02 
  9.719342190194e-02 
  9.724942742435e-02 
  8.537775599808e-02 
  8.543376152048e-02 
  7.361809561662e-02 
  1.010888412787e-01 
  1.063945704441e-01 
  1.117002996095e-01 
  1.071866089682e-01 
  1.124923381335e-01 
  1.132843766576e-01 
  1.113346524587e-01 
  1.053319649813e-01 
  9.932927750380e-02 
  1.061587798271e-01 
  1.001560923496e-01 
  1.009829071955e-01 
  9.791670555014e-02 
  1.049720293982e-01 
  1.120273532464e-01 
  9.833452047179e-02 
  1.053898443199e-01 
  9.875233539344e-02 
  1.010126936512e-01 
  1.004317958194e-01 
  9.985089798757e-02 
  8.966079153396e-02 
  8.907989370216e-02 
  7.830888941674e-02 
  2.384767682325e-02 
  1.527678840784e-02 
  6.705899992418e-03 
  7.056067904775e-02 
  6.198979063233e-02 
  1.172736812722e-01 
  9.643260662437e-02 
  8.088405652351e-02 
  6.533550642265e-02 
  8.536476717427e-02 
  6.981621707341e-02 
  7.429692772417e-02 
  9.664218470472e-02 
  9.691690149726e-02 
  9.719161828979e-02 
  8.025622151616e-02 
  8.053093830870e-02 
  6.387025832760e-02 
  5.352999157292e-02 
  6.368473371032e-02 
  7.383947584772e-02 
  5.992154561221e-02 
  7.007628774961e-02 
  6.631309965151e-02 
  7.272056771039e-02 
  6.260253532249e-02 
  5.248450293458e-02 
  5.843418656506e-02 
  4.831615417716e-02 
  4.414780541973e-02 
  7.288726266473e-02 
  7.231958109428e-02 
  7.175189952382e-02 
  7.712860337575e-02 
  7.656092180529e-02 
  8.136994408676e-02 
  7.142749713702e-02 
  7.229616361828e-02 
  7.316483009954e-02 
  6.240993595887e-02 
  6.327860244013e-02 
  5.339237478072e-02 
  9.350983918167e-02 
  8.756946885202e-02 
  8.162909852236e-02 
  9.408219806443e-02 
  8.814182773478e-02 
  9.465455694719e-02 
  7.375141478029e-02 
  7.732943286519e-02 
  8.090745095010e-02 
  8.513576794336e-02 
  8.871378602827e-02 
  9.652012110644e-02 
  5.287774068819e-02 
  4.792543525967e-02 
  4.297312983115e-02 
  3.750923494850e-02 
  3.255692951998e-02 
  2.214072920881e-02 
  5.306363360506e-02 
  5.990512589893e-02 
  6.674661819280e-02 
  4.836329438489e-02 
  5.520478667876e-02 
  4.366295516473e-02 
  6.643135514479e-02 
  6.006700543861e-02 
  5.370265573243e-02 
  5.511996542659e-02 
  4.875561572041e-02 
  4.380857570839e-02 
  9.604164230030e-02 
  8.882664187554e-02 
  8.161164145078e-02 
  9.091058707904e-02 
  8.369558665428e-02 
  8.577953185778e-02 
  7.714545944551e-02 
  7.432734717073e-02 
  7.150923489595e-02 
  6.024527306304e-02 
  5.742716078827e-02 
  4.334508668058e-02 
  7.775256802009e-02 
  8.837704072977e-02 
  9.900151343946e-02 
  7.507692353605e-02 
  8.570139624574e-02 
  7.240127905202e-02 
  4.255872934972e-02 
  4.957687739035e-02 
  5.659502543098e-02 
  2.146174783579e-02 
  2.847989587642e-02 
  3.647663218637e-04 
  5.785986763135e-02 
  4.988581670562e-02 
  4.191176577990e-02 
  6.537217352693e-02 
  5.739812260121e-02 
  7.288447942252e-02 
  9.416609166419e-02 
  4.906632892690e-02 
  3.966566189609e-03 
  4.737497348809e-02 
  2.275210750799e-03 
  5.838553119886e-04 
  1.478925945829e-02 
  8.024272447785e-03 
  1.259285437284e-03 
  6.238642937908e-02 
  5.562144236857e-02 
  1.099835992999e-01 
  7.439354298595e-02 
  7.829122461100e-02 
  8.218890623605e-02 
  6.677884914225e-02 
  7.067653076730e-02 
  5.916415529856e-02 
  1.005192146957e-01 
  5.010945575514e-02 
 -3.003031854498e-04 
  5.727160132786e-02 
  6.861842387269e-03 
  1.402398795999e-02 
  8.362201443830e-02 
  8.837580162702e-02 
  9.312958881574e-02 
  8.375713403836e-02 
  8.851092122708e-02 
  8.389225363843e-02 
  9.308388965574e-02 
  8.908639199941e-02 
  8.508889434308e-02 
  8.783938965433e-02 
  8.384189199800e-02 
  8.259488965292e-02 
  7.826609581450e-02 
  8.148688656951e-02 
  8.470767732452e-02 
  8.363687708556e-02 
  8.685766784057e-02 
  8.900765835662e-02 
  8.316211308306e-02 
  8.116328559602e-02 
  7.916445810898e-02 
  8.352681315365e-02 
  8.152798566661e-02 
  8.389151322424e-02 
  9.032772201125e-02 
  8.822839540249e-02 
  8.612906879372e-02 
  9.494544433129e-02 
  9.284611772252e-02 
  9.956316665133e-02 
  8.018601121592e-02 
  8.391912537532e-02 
  8.765223953473e-02 
  6.986063902148e-02 
  7.359375318088e-02 
  5.953526682703e-02 
  9.302982195621e-02 
  9.648974499042e-02 
  9.994966802463e-02 
  8.929566207291e-02 
  9.275558510712e-02 
  8.556150218961e-02 
  8.483712607718e-02 
  8.259345508406e-02 
  8.034978409095e-02 
  8.027148379173e-02 
  7.802781279861e-02 
  7.570584150628e-02 
  9.712953851782e-02 
  9.133253447761e-02 
  8.553553043740e-02 
  8.599587934212e-02 
  8.019887530191e-02 
  7.486222016642e-02 
  9.236425260196e-02 
  9.571274577763e-02 
  9.906123895331e-02 
  5.005067351993e-02 
  5.339916669561e-02 
  7.737094437911e-03 
  8.118778043660e-02 
  7.681277601769e-02 
  7.243777159878e-02 
  8.797598799223e-02 
  8.360098357332e-02 
  9.476419554785e-02 
  4.463911002261e-02 
  7.753266814797e-02 
  1.104262262733e-01 
  7.068736506216e-02 
  1.035809231875e-01 
  9.673562010172e-02 
  7.847034127673e-03 
  3.757095846023e-03 
 -3.328424356273e-04 
  1.531325295824e-02 
  1.122331467659e-02 
  2.277947178880e-02 
  7.177982030723e-03 
  3.130449230284e-03 
 -9.170835701546e-04 
  3.502982450009e-03 
 -5.445503504302e-04 
 -1.720171307059e-04 
  2.312272583593e-02 
  1.197265068263e-02 
  8.225755293263e-04 
  3.320245016155e-02 
  2.205237500825e-02 
  4.328217448718e-02 
  6.750374461917e-02 
  5.574049614636e-02 
  4.397724767355e-02 
  3.357589096076e-02 
  2.181264248795e-02 
 -3.519626976430e-04 
  6.944159209713e-02 
  8.253390821372e-02 
  9.562622433031e-02 
  7.122616208753e-02 
  8.431847820412e-02 
  7.301073207792e-02 
  6.868919580637e-02 
  7.112410449705e-02 
  7.355901318772e-02 
  5.640895312260e-02 
  5.884386181327e-02 
  4.412871043882e-02 
  6.991807401028e-04 
  1.197700469491e-02 
  2.325482864972e-02 
  1.546778073224e-04 
  1.143250176213e-02 
 -3.898251254580e-04 
  5.273937314990e-02 
  3.771622222559e-02 
  2.269307130127e-02 
  4.820048191793e-02 
  3.317733099361e-02 
  4.366159068596e-02 
 -3.996308508348e-04 
  1.289693704626e-04 
  6.575695917600e-04 
  3.363430667348e-02 
  3.416290689478e-02 
  6.766824419780e-02 
  1.094985024663e-01 
  5.748800814018e-02 
  5.477513814047e-03 
  1.037383428151e-01 
  5.172784848892e-02 
  9.797818316380e-02 
  9.385535080936e-02 
  7.767484207583e-02 
  6.149433334230e-02 
  8.958694776483e-02 
  7.340643903129e-02 
  8.531854472029e-02 
  4.344793119781e-02 
  2.290898056260e-02 
  2.370029927391e-03 
  4.706605913665e-02 
  2.652710850144e-02 
  5.068418707549e-02 
  1.034995192472e-01 
  5.205728492753e-02 
  6.150506078628e-04 
  5.309141228785e-02 
  1.649177968191e-03 
  2.683305328518e-03 
  1.007372606419e-01 
  5.001837495379e-02 
 -7.005107342869e-04 
  5.116120782998e-02 
  4.423221418981e-04 
  1.585155018083e-03 
  9.625592115395e-02 
  5.026780718233e-02 
  4.279693210702e-03 
  8.908171504950e-02 
  4.309360107787e-02 
  8.190750894504e-02 
  6.775406907287e-02 
  3.387685014749e-02 
 -3.687778778965e-07 
  8.340852931168e-02 
  4.953131038631e-02 
  9.906298955050e-02 
  7.741980228091e-02 
  8.732729085616e-02 
  9.723477943141e-02 
  8.543620437283e-02 
  9.534369294808e-02 
  9.345260646475e-02 
  1.222406838700e-01 
  6.171981343366e-02 
  1.198942997363e-03 
  6.224283660041e-02 
  1.721966164114e-03 
  2.244989330865e-03 
  9.507111487168e-02 
  9.741635013700e-02 
  9.976158540233e-02 
  1.041910409556e-01 
  1.065362762209e-01 
  1.133109670394e-01 
  9.878544640351e-02 
  9.734592139371e-02 
  9.590639638392e-02 
  8.377733522954e-02 
  8.233781021975e-02 
  6.876922405557e-02 
  9.888684674692e-02 
  9.797182462633e-02 
  9.705680250575e-02 
  9.845695801511e-02 
  9.754193589453e-02 
  9.802706928331e-02 
  9.806607606334e-02 
  9.260020263507e-02 
  8.713432920681e-02 
  9.825254892306e-02 
  9.278667549480e-02 
  9.843902178279e-02 
  9.972611077230e-02 
  9.623804221012e-02 
  9.274997364794e-02 
  1.062104811504e-01 
  1.027224125882e-01 
  1.126948515284e-01 
  1.136040799256e-01 
  1.214096431918e-01 
  1.292152064580e-01 
  1.063355834707e-01 
  1.141411467368e-01 
  9.906708701571e-02 
  1.133778779989e-01 
  1.069237206145e-01 
  1.004695632300e-01 
  1.164420664710e-01 
  1.099879090865e-01 
  1.195062549430e-01 
  9.503207657304e-02 
  1.037274813482e-01 
  1.124228861234e-01 
  9.398960211031e-02 
  1.026850068855e-01 
  9.294712764758e-02 
  1.197825434282e-01 
  1.225549294898e-01 
  1.253273155514e-01 
  1.252256909432e-01 
  1.279980770048e-01 
  1.306688384581e-01 
  1.198381871577e-01 
  1.109790252001e-01 
  1.021198632425e-01 
  6.197313225267e-02 
  5.311397029504e-02 
  4.108077347611e-03 
  1.015017105672e-01 
  1.154426388357e-01 
  1.293835671043e-01 
  1.161630685705e-01 
  1.301039968391e-01 
  1.308244265738e-01 
  1.292400626882e-01 
  1.148979813873e-01 
  1.005559000864e-01 
  1.137978501478e-01 
  9.945576884690e-02 
  9.835563760738e-02 
  1.102336019921e-01 
  1.056299296033e-01 
  1.010262572145e-01 
  1.089335342208e-01 
  1.043298618320e-01 
  1.076334664496e-01 
  9.958395899844e-02 
  1.051191158052e-01 
  1.106542726119e-01 
  9.811166560440e-02 
  1.036468224111e-01 
  9.663937221036e-02 
  1.303221228477e-01 
  1.302639055766e-01 
  1.302056883056e-01 
  1.280232709438e-01 
  1.279650536728e-01 
  1.257244190399e-01 
  1.197826299229e-01 
  1.248707386400e-01 
  1.299588473572e-01 
  1.164555113448e-01 
  1.215436200619e-01 
  1.131283927666e-01 
  4.392833413732e-03 
  6.470478261712e-02 
  1.250167318205e-01 
  6.258988489046e-02 
  1.229018340939e-01 
  1.207869363672e-01 