# vtk DataFile Version 2
NuDG++ 2D simulation
ASCII
DATASET UNSTRUCTURED_GRID

POINTS 2244 double
 -1.656250060000e-01  -2.000000030000e-01  0.0
 -1.828125045000e-01  -1.772221997500e-01  0.0
 -2.000000030000e-01  -1.544443965000e-01  0.0
 -1.828125045000e-01  -2.000000030000e-01  0.0
 -2.000000030000e-01  -1.772221997500e-01  0.0
 -2.000000030000e-01  -2.000000030000e-01  0.0
 -6.428571790000e-02  -1.700000018000e-01  0.0
 -8.058035746000e-02  -1.850000024000e-01  0.0
 -9.687499702000e-02  -2.000000030000e-01  0.0
 -6.339285895000e-02  -1.850000024000e-01  0.0
 -7.968749851000e-02  -2.000000030000e-01  0.0
 -6.250000000000e-02  -2.000000030000e-01  0.0
 -2.000000030000e-01  -1.544443965000e-01  0.0
 -1.750000045000e-01  -1.379364989500e-01  0.0
 -1.500000060000e-01  -1.214286014000e-01  0.0
 -2.000000030000e-01  -1.316666491500e-01  0.0
 -1.750000045000e-01  -1.151587516000e-01  0.0
 -2.000000030000e-01  -1.088889018000e-01  0.0
 -1.500000060000e-01  -1.214286014000e-01  0.0
 -1.750000045000e-01  -1.379364989500e-01  0.0
 -2.000000030000e-01  -1.544443965000e-01  0.0
 -1.500000060000e-01  -1.457143016000e-01  0.0
 -1.750000045000e-01  -1.622221991500e-01  0.0
 -1.500000060000e-01  -1.700000018000e-01  0.0
 -1.500000060000e-01  -7.285714149000e-02  0.0
 -1.750000045000e-01  -9.087302164500e-02  0.0
 -2.000000030000e-01  -1.088889018000e-01  0.0
 -1.500000060000e-01  -9.714287144500e-02  0.0
 -1.750000045000e-01  -1.151587516000e-01  0.0
 -1.500000060000e-01  -1.214286014000e-01  0.0
  1.832975030000e+00  -4.625000060000e-02  0.0
  1.853987515000e+00  -1.231250018000e-01  0.0
  1.875000000000e+00  -2.000000030000e-01  0.0
  1.916487515000e+00  -7.187499851000e-02  0.0
  1.937500000000e+00  -1.487499997100e-01  0.0
  2.000000000000e+00  -9.749999642000e-02  0.0
 -1.500000060000e-01  -1.700000018000e-01  0.0
 -1.360000037000e-01  -1.525000036000e-01  0.0
 -1.220000014000e-01  -1.350000054000e-01  0.0
 -1.500000060000e-01  -1.457143016000e-01  0.0
 -1.360000037000e-01  -1.282143034000e-01  0.0
 -1.500000060000e-01  -1.214286014000e-01  0.0
  2.849999964000e-01  -2.333333530000e-02  0.0
  2.837499976000e-01  -8.166666795000e-02  0.0
  2.824999988000e-01  -1.400000006000e-01  0.0
  3.174999952000e-01  -4.666666780000e-02  0.0
  3.162499964000e-01  -1.050000004500e-01  0.0
  3.499999940000e-01  -7.000000030000e-02  0.0
 -1.071429029000e-01  -1.700000018000e-01  0.0
 -8.571431040000e-02  -1.700000018000e-01  0.0
 -6.428571790000e-02  -1.700000018000e-01  0.0
 -9.857145324000e-02  -1.525000036000e-01  0.0
 -7.714286074000e-02  -1.525000036000e-01  0.0
 -9.000000358000e-02  -1.350000054000e-01  0.0
 -1.312499940000e-01  -2.000000030000e-01  0.0
 -1.191964484500e-01  -1.850000024000e-01  0.0
 -1.071429029000e-01  -1.700000018000e-01  0.0
 -1.406250000000e-01  -1.850000024000e-01  0.0
 -1.285714544500e-01  -1.700000018000e-01  0.0
 -1.500000060000e-01  -1.700000018000e-01  0.0
 -1.220000014000e-01  -1.350000054000e-01  0.0
 -1.060000024900e-01  -1.350000054000e-01  0.0
 -9.000000358000e-02  -1.350000054000e-01  0.0
 -1.185000017500e-01  -1.175000034500e-01  0.0
 -1.025000028400e-01  -1.175000034500e-01  0.0
 -1.150000021000e-01  -1.000000015000e-01  0.0
 -9.000000358000e-02  -1.350000054000e-01  0.0
 -1.060000024900e-01  -1.350000054000e-01  0.0
 -1.220000014000e-01  -1.350000054000e-01  0.0
 -9.857145324000e-02  -1.525000036000e-01  0.0
 -1.145714521500e-01  -1.525000036000e-01  0.0
 -1.071429029000e-01  -1.700000018000e-01  0.0
 -7.778175920000e-02  -9.192386270000e-02  0.0
 -9.639088065000e-02  -9.596193210000e-02  0.0
 -1.150000021000e-01  -1.000000015000e-01  0.0
 -8.389088139000e-02  -1.134619340500e-01  0.0
 -1.025000028400e-01  -1.175000034500e-01  0.0
 -9.000000358000e-02  -1.350000054000e-01  0.0
 -1.220000014000e-01  -1.350000054000e-01  0.0
 -1.185000017500e-01  -1.175000034500e-01  0.0
 -1.150000021000e-01  -1.000000015000e-01  0.0
 -1.360000037000e-01  -1.282143034000e-01  0.0
 -1.325000040500e-01  -1.107143014500e-01  0.0
 -1.500000060000e-01  -1.214286014000e-01  0.0
 -7.778175920000e-02  -9.192386270000e-02  0.0
 -8.389088139000e-02  -1.134619340500e-01  0.0
 -9.000000358000e-02  -1.350000054000e-01  0.0
 -6.639088876500e-02  -1.022535823500e-01  0.0
 -7.250001095500e-02  -1.237916537000e-01  0.0
 -5.500001833000e-02  -1.125833020000e-01  0.0
 -1.071429029000e-01  -1.700000018000e-01  0.0
 -1.145714521500e-01  -1.525000036000e-01  0.0
 -1.220000014000e-01  -1.350000054000e-01  0.0
 -1.285714544500e-01  -1.700000018000e-01  0.0
 -1.360000037000e-01  -1.525000036000e-01  0.0
 -1.500000060000e-01  -1.700000018000e-01  0.0
  6.250000093000e-03  -2.000000030000e-01  0.0
  4.062500153650e-02  -2.000000030000e-01  0.0
  7.500000298000e-02  -2.000000030000e-01  0.0
  1.383928512150e-02  -1.850000024000e-01  0.0
  4.821428656500e-02  -1.850000024000e-01  0.0
  2.142857015000e-02  -1.700000018000e-01  0.0
 -1.500000060000e-01  -7.285714149000e-02  0.0
 -1.500000060000e-01  -9.714287144500e-02  0.0
 -1.500000060000e-01  -1.214286014000e-01  0.0
 -1.325000040500e-01  -8.642857149500e-02  0.0
 -1.325000040500e-01  -1.107143014500e-01  0.0
 -1.150000021000e-01  -1.000000015000e-01  0.0
 -2.000000030000e-01  -6.333333254000e-02  0.0
 -1.750000045000e-01  -6.809523701500e-02  0.0
 -1.500000060000e-01  -7.285714149000e-02  0.0
 -1.750000045000e-01  -4.380952660000e-02  0.0
 -1.500000060000e-01  -4.857143107500e-02  0.0
 -1.500000060000e-01  -2.428572066000e-02  0.0
 -2.000000030000e-01  -6.333333254000e-02  0.0
 -2.000000030000e-01  -8.611111717000e-02  0.0
 -2.000000030000e-01  -1.088889018000e-01  0.0
 -1.750000045000e-01  -6.809523701500e-02  0.0
 -1.750000045000e-01  -9.087302164500e-02  0.0
 -1.500000060000e-01  -7.285714149000e-02  0.0
 -2.000000030000e-01  -6.333333254000e-02  0.0
 -1.750000045000e-01  -4.380952660000e-02  0.0
 -1.500000060000e-01  -2.428572066000e-02  0.0
 -2.000000030000e-01  -4.055555630500e-02  0.0
 -1.750000045000e-01  -2.103175036500e-02  0.0
 -2.000000030000e-01  -1.777778007000e-02  0.0
 -1.500000060000e-01  -2.428572066000e-02  0.0
 -1.500000060000e-01  -4.857143107500e-02  0.0
 -1.500000060000e-01  -7.285714149000e-02  0.0
 -1.281259023000e-01  -2.896608505500e-02  0.0
 -1.281259023000e-01  -5.325179547000e-02  0.0
 -1.062517986000e-01  -3.364644945000e-02  0.0
 -1.099999994000e-01   1.996667010000e-08  0.0
 -1.300000027000e-01  -1.214285034666e-02  0.0
 -1.500000060000e-01  -2.428572066000e-02  0.0
 -1.081258990000e-01  -1.682321474166e-02  0.0
 -1.281259023000e-01  -2.896608505500e-02  0.0
 -1.062517986000e-01  -3.364644945000e-02  0.0
 -1.500000060000e-01  -2.428572066000e-02  0.0
 -1.500000060000e-01   0.000000000000e+00  0.0
 -1.500000060000e-01   2.428572066000e-02  0.0
 -1.750000045000e-01  -2.103175036500e-02  0.0
 -1.750000045000e-01   3.253970295000e-03  0.0
 -2.000000030000e-01  -1.777778007000e-02  0.0
 -1.500000060000e-01  -7.285714149000e-02  0.0
 -1.226314045700e-01  -6.892856210000e-02  0.0
 -9.526280314000e-02  -6.499998271000e-02  0.0
 -1.281259023000e-01  -5.325179547000e-02  0.0
 -1.007573008700e-01  -4.932321608000e-02  0.0
 -1.062517986000e-01  -3.364644945000e-02  0.0
  3.499999940000e-01   1.400000006000e-01  0.0
  4.021931737500e-01   1.224999986500e-01  0.0
  4.543863535000e-01   1.049999967000e-01  0.0
  4.187500029500e-01   1.749999970000e-01  0.0
  4.709431827000e-01   1.574999950500e-01  0.0
  4.875000119000e-01   2.099999934000e-01  0.0
 -7.101409137000e-02  -4.349999130000e-02  0.0
 -8.313844725500e-02  -5.424998700500e-02  0.0
 -9.526280314000e-02  -6.499998271000e-02  0.0
 -6.449843011500e-02  -5.250913650000e-02  0.0
 -7.662278600000e-02  -6.325913220500e-02  0.0
 -5.798276886000e-02  -6.151828170000e-02  0.0
 -9.526280314000e-02  -6.499998271000e-02  0.0
 -1.226314045700e-01  -6.892856210000e-02  0.0
 -1.500000060000e-01  -7.285714149000e-02  0.0
 -1.051314026200e-01  -8.249999210500e-02  0.0
 -1.325000040500e-01  -8.642857149500e-02  0.0
 -1.150000021000e-01  -1.000000015000e-01  0.0
 -6.181925908000e-02  -1.656441018000e-02  0.0
 -7.051259093000e-02  -1.954082492500e-02  0.0
 -7.920592278000e-02  -2.251723967000e-02  0.0
 -5.862244405000e-02  -2.428220026000e-02  0.0
 -6.731577590000e-02  -2.725861500500e-02  0.0
 -5.542562902000e-02  -3.199999034000e-02  0.0
 -7.920592278000e-02  -2.251723967000e-02  0.0
 -9.272886069000e-02  -2.808184456000e-02  0.0
 -1.062517986000e-01  -3.364644945000e-02  0.0
 -7.511000707500e-02  -3.300861548500e-02  0.0
 -8.863294498500e-02  -3.857322037500e-02  0.0
 -7.101409137000e-02  -4.349999130000e-02  0.0
 -7.101409137000e-02  -4.349999130000e-02  0.0
 -6.321986019500e-02  -3.774999082000e-02  0.0
 -5.542562902000e-02  -3.199999034000e-02  0.0
 -7.511000707500e-02  -3.300861548500e-02  0.0
 -6.731577590000e-02  -2.725861500500e-02  0.0
 -7.920592278000e-02  -2.251723967000e-02  0.0
 -7.920592278000e-02  -2.251723967000e-02  0.0
 -9.460296109000e-02  -1.125860985166e-02  0.0
 -1.099999994000e-01   1.996667010000e-08  0.0
 -9.272886069000e-02  -2.808184456000e-02  0.0
 -1.081258990000e-01  -1.682321474166e-02  0.0
 -1.062517986000e-01  -3.364644945000e-02  0.0
 -7.778175920000e-02  -9.192386270000e-02  0.0
 -6.788226403000e-02  -7.672107220000e-02  0.0
 -5.798276886000e-02  -6.151828170000e-02  0.0
 -8.652228117000e-02  -7.846192270500e-02  0.0
 -7.662278600000e-02  -6.325913220500e-02  0.0
 -9.526280314000e-02  -6.499998271000e-02  0.0
 -7.101409137000e-02  -4.349999130000e-02  0.0
 -8.863294498500e-02  -3.857322037500e-02  0.0
 -1.062517986000e-01  -3.364644945000e-02  0.0
 -8.313844725500e-02  -5.424998700500e-02  0.0
 -1.007573008700e-01  -4.932321608000e-02  0.0
 -9.526280314000e-02  -6.499998271000e-02  0.0
 -7.778175920000e-02  -9.192386270000e-02  0.0
 -8.652228117000e-02  -7.846192270500e-02  0.0
 -9.526280314000e-02  -6.499998271000e-02  0.0
 -9.639088065000e-02  -9.596193210000e-02  0.0
 -1.051314026200e-01  -8.249999210500e-02  0.0
 -1.150000021000e-01  -1.000000015000e-01  0.0
[...]
POINT_DATA 2244
SCALARS field1 double 1
LOOKUP_TABLE default
  2.027470450116e-03 
  5.193939382745e-02 
  1.018513172048e-01 
  1.219866769457e-03 
  5.113179014679e-02 
  4.122630887981e-04 
  2.038601937252e-01 
  1.025705400930e-01 
  1.280886460875e-03 
  1.027265147703e-01 
  1.436861138115e-03 
  1.592835815356e-03 
  1.002819682568e-01 
  1.298111548190e-01 
  1.593403413811e-01 
  1.386539800053e-01 
  1.681831665675e-01 
  1.770259917539e-01 
  1.609370631320e-01 
  1.299154066244e-01 
  9.889375011671e-02 
  1.300149811021e-01 
  9.899332459445e-02 
  9.909289907219e-02 
  2.165537124043e-01 
  1.968369961705e-01 
  1.771202799367e-01 
  1.893293844886e-01 
  1.696126682548e-01 
  1.621050565729e-01 
  2.288794553012e-01 
  1.334287817805e-01 
  3.797810825984e-02 
  2.171325455937e-01 
  1.216818720730e-01 
  2.053856358862e-01 
  1.005308448236e-01 
  1.349263035159e-01 
  1.693217622082e-01 
  1.312577904523e-01 
  1.656532491446e-01 
  1.619847360810e-01 
  1.911508961180e-01 
  2.028082376948e-01 
  2.144655792716e-01 
  1.975378045253e-01 
  2.091951461021e-01 
  2.039247129326e-01 
  1.594494754803e-01 
  1.800252143731e-01 
  2.006009532659e-01 
  1.744883245970e-01 
  1.950640634898e-01 
  1.895271737137e-01 
  2.295900591429e-03 
  8.090553031596e-02 
  1.595151600405e-01 
  5.061558484418e-02 
  1.292252145687e-01 
  9.893526909693e-02 
  1.658945238369e-01 
  1.755570166898e-01 
  1.852195095428e-01 
  1.795518800546e-01 
  1.892143729076e-01 
  1.932092362724e-01 
  1.870774062012e-01 
  1.765969382009e-01 
  1.661164702005e-01 
  1.734314765963e-01 
  1.629510085960e-01 
  1.597855469914e-01 
  2.196080596375e-01 
  2.060473139078e-01 
  1.924865681780e-01 
  2.032283903753e-01 
  1.896676446455e-01 
  1.868487211130e-01 
  1.664232817139e-01 
  1.808817193849e-01 
  1.953401570559e-01 
  1.653294401178e-01 
  1.797878777888e-01 
  1.642355985217e-01 
  2.199707339776e-01 
  2.043001270897e-01 
  1.886295202017e-01 
  2.299859501350e-01 
  2.143153432470e-01 
  2.400011662923e-01 
  1.582617565174e-01 
  1.634145138579e-01 
  1.685672711984e-01 
  1.292737645638e-01 
  1.344265219043e-01 
  1.002857726103e-01 
  1.606798010095e-03 
  2.259655728089e-03 
  2.912513446083e-03 
  1.203717288812e-01 
  1.210245865992e-01 
  2.391366597524e-01 
  2.160829631027e-01 
  1.900226590533e-01 
  1.639623550040e-01 
  2.063371569909e-01 
  1.802768529416e-01 
  1.965913508792e-01 
  2.300920810286e-01 
  2.221283693679e-01 
  2.141646577072e-01 
  2.336651561871e-01 
  2.257014445264e-01 
  2.372382313456e-01 
  2.291088765080e-01 
  2.036741029727e-01 
  1.782393294374e-01 
  2.222674215202e-01 
  1.968326479849e-01 
  2.154259665324e-01 
  2.305422256438e-01 
  2.342637113235e-01 
  2.379851970033e-01 
  2.431603488725e-01 
  2.468818345523e-01 
  2.557784721012e-01 
  2.362413060347e-01 
  2.260356645776e-01 
  2.158300231204e-01 
  2.117384454662e-01 
  2.015328040090e-01 
  1.872355848976e-01 
  1.663635144649e-01 
  2.011656964177e-01 
  2.359678783704e-01 
  1.763527261253e-01 
  2.111549080781e-01 
  1.863419377857e-01 
  2.341222379522e-01 
  2.349449824199e-01 
  2.357677268875e-01 
  2.455920349270e-01 
  2.464147793947e-01 
  2.570618319019e-01 
  2.153186004914e-01 
  2.060978066269e-01 
  1.968770127624e-01 
  2.009358511762e-01 
  1.917150573116e-01 
  1.865531018609e-01 
  2.175951336376e-01 
  2.293055824474e-01 
  2.410160312573e-01 
  1.283000706758e-01 
  1.400105194857e-01 
  3.900500771400e-02 
  1.613948339380e-01 
  1.809021176466e-01 
  2.004094013552e-01 
  1.872672846143e-01 
  2.067745683229e-01 
  2.131397352906e-01 
  1.978565017888e-01 
  2.066022900773e-01 
  2.153480783658e-01 
  1.973096472987e-01 
  2.060554355872e-01 
  1.967627928087e-01 
  5.485930110483e-02 
  8.979978044135e-02 
  1.247402597779e-01 
  7.217669857472e-02 
  1.071171779112e-01 
  8.949409604461e-02 
  1.223608218944e-01 
  1.537786024317e-01 
  1.851963829690e-01 
  1.417452465308e-01 
  1.731630270681e-01 
  1.611296711673e-01 
  1.608729332582e-01 
  1.259714036810e-01 
  9.106987410378e-02 
  1.421474355131e-01 
  1.072459059359e-01 
  1.234219377680e-01 
  1.215084605883e-01 
  1.431189976087e-01 
  1.647295346292e-01 
  1.536644650003e-01 
  1.752750020208e-01 
  1.858204694123e-01 
  2.205561112486e-01 
  2.175297186092e-01 
  2.145033259699e-01 
  2.101675669795e-01 
  2.071411743402e-01 
  1.997790227105e-01 
  1.622365042484e-01 
  1.736755079289e-01 
  1.851145116093e-01 
  1.812167630037e-01 
  1.926557666842e-01 
  2.001970217590e-01 
  2.183203516183e-01 
  2.086956696924e-01 
  1.990709877665e-01 
  2.063685487991e-01 
  1.967438668732e-01 
  1.944167459799e-01 
  1.236650631237e-01 
  8.945017968320e-02 
  5.523529624273e-02 
  1.127604946977e-01 
  7.854561125728e-02 
  1.018559262718e-01 
  2.379718039137e-01 
  2.140538775150e-01 
  1.901359511163e-01 
  2.193957488648e-01 
  1.954778224661e-01 
  2.008196938159e-01 
  2.081000005778e-01 
  2.122983940421e-01 
  2.164967875064e-01 
  1.941409375628e-01 
  1.983393310271e-01 
  1.801818745479e-01 
  2.496126242536e-01 
  2.392827870292e-01 
  2.289529498048e-01 
  2.574559838987e-01 
  2.471261466743e-01 
  2.652993435438e-01 
  2.469666354695e-01 
  2.415767722697e-01 
  2.361869090699e-01 
  2.240297008010e-01 
  2.186398376013e-01 
  2.010927661326e-01 
  2.197042378631e-01 
  2.390300314655e-01 
  2.583558250680e-01 
  2.169387951095e-01 
  2.362645887119e-01 
  2.141733523558e-01 
  2.592514315897e-01 
  2.394718401107e-01 
  2.196922486317e-01 
  2.493359405157e-01 
  2.295563490367e-01 
  2.394204494417e-01 
  2.988100781092e-01 
  2.800620971847e-01 
  2.613141162602e-01 
  2.678202834320e-01 
  2.490723025075e-01 
  2.368304887548e-01 
  2.159038131592e-01 
  2.146525996585e-01 
  2.134013861578e-01 
  2.388844441528e-01 
  2.376332306521e-01 
  2.618650751465e-01 
  2.353135271901e-01 
  2.419301231550e-01 
  2.485467191198e-01 
  2.673761297870e-01 
  2.739927257519e-01 
  2.994387323840e-01 
  2.488105531534e-01 
  2.250958877277e-01 
  2.013812223021e-01 
  2.385145817442e-01 
  2.147999163186e-01 
  2.282186103351e-01 
  3.175216722733e-01 
  3.092965710370e-01 
  3.010714698007e-01 
  2.836711460748e-01 
  2.754460448385e-01 
  2.498206198763e-01 
  1.317937464251e-03 
  1.246200202372e-01 
  2.479221030101e-01 
  7.038195992298e-04 
  1.240059023722e-01 
  8.970173420861e-05 
  3.050560267999e-01 
  2.771117885851e-01 
  2.491675503703e-01 
  2.745294449664e-01 
  2.465852067516e-01 
  2.440028631328e-01 
  2.498144460304e-01 
  2.771713880808e-01 
  3.045283301311e-01 
  2.827706987224e-01 
  3.101276407728e-01 
  3.157269514145e-01 
  2.430575757116e-01 
  2.459757616836e-01 
  2.488939476556e-01 
  1.236333838717e-01 
  1.265515698437e-01 
  4.209192031695e-03 
  3.015197568163e-01 
  2.741819775095e-01 
  2.468441982027e-01 
  2.824122352565e-01 
  2.550744559497e-01 
  2.633047136966e-01 
  3.006552843556e-01 
  2.739041370529e-01 
  2.471529897501e-01 
  3.080177024459e-01 
  2.812665551432e-01 
  3.153801205362e-01 
  3.159801228047e-01 
  2.833499769480e-01 
  2.507198310912e-01 
  2.890993351791e-01 
  2.564691893223e-01 
  2.622185475534e-01 
  2.288193454659e-01 
  2.306779701049e-01 
  2.325365947439e-01 
  2.470530089275e-01 
  2.489116335665e-01 
  2.652866723891e-01 
  2.147576095554e-01 
  2.397328868272e-01 
  2.647081640990e-01 
  2.302122705815e-01 
  2.551875478533e-01 
  2.456669316077e-01 
 -1.210961721183e-03 
  4.590243992650e-02 
  9.301584157418e-02 
  1.731097363783e-03 
  4.884449901146e-02 
  4.673156448749e-03 
  9.197928138146e-02 
  1.256477366606e-01 
  1.593161919398e-01 
  1.260779842895e-01 
  1.597464395686e-01 
  1.601766871975e-01 
  1.968962302723e-01 
  1.016531892169e-01 
  6.410148161430e-03 
  9.789291425533e-02 
  2.649873199896e-03 
 -1.110401761637e-03 
 -2.841210353751e-03 
  7.930590350418e-03 
  1.870239105459e-02 
  2.553429429870e-02 
  3.630609500287e-02 
  5.390979895115e-02 
  6.862524477183e-04 
 -1.595954790256e-03 
 -3.878162028230e-03 
  4.391576753991e-02 
  4.163356030193e-02 
  8.714528263210e-02 
  1.751274697998e-01 
  8.855603188513e-02 
  1.984593970423e-03 
  1.439140025511e-01 
  5.734256463642e-02 
  1.127005353024e-01 
  9.258200639407e-02 
  1.279257606456e-01 
  1.632695148971e-01 
  4.938746517452e-02 
  8.473121942605e-02 
  6.192923954964e-03 
 -4.855607346256e-03 
  2.452195407619e-02 
  5.389951549864e-02 
  4.113778846193e-02 
  7.051534988438e-02 
  8.713118427013e-02 
  1.877191343138e-03 
  2.017181092136e-03 
  2.157170841134e-03 
  1.236942386062e-01 
  1.238342283552e-01 
  2.455112858692e-01 
  2.922584994076e-03 
  1.270946998653e-01 
  2.512668147366e-01 
  2.491627262317e-03 
  1.266637421336e-01 
  2.060669530558e-03 
  2.407640124243e-01 
  1.244186494839e-01 
  8.073286543429e-03 
  2.265070142508e-01 
  1.101616513103e-01 
  2.122500160772e-01 
  1.256423512283e-03 
  8.517525165228e-02 
  1.690940797923e-01 
  3.246933057440e-03 
  8.716576119744e-02 
  5.237442602596e-03 
  4.927233194675e-03 
  1.099021353374e-01 
  2.148770374801e-01 
  1.242922318360e-01 
  2.292671339787e-01 
  2.436572304773e-01 
  2.297425140783e-01 
  1.186402336081e-01 
  7.537953137935e-03 
  2.315527388104e-01 
  1.204504583402e-01 
  2.333629635425e-01 
  1.629597749538e-01 
  8.194116344054e-02 
  9.225519272511e-04 
  8.304811392672e-02 
  2.029502413430e-03 
  3.136452899608e-03 
  8.373735126702e-03 
  8.759036946723e-02 
  1.668070038078e-01 
  1.111471871969e-01 
  1.903638215374e-01 
  2.139206392670e-01 
  1.628893405528e-01 
  1.885485992359e-01 
  2.142078579190e-01 
  1.888889766707e-01 
  2.145482353538e-01 
  2.148886127886e-01 
  2.047912599100e-01 
  1.059562300434e-01 
  7.121200176752e-03 
  2.154726992761e-01 
  1.166376694095e-01 
  2.261541386422e-01 
  3.144706861629e-01 
  2.882115402914e-01 
  2.619523944198e-01 
  2.884038427689e-01 
  2.621446968974e-01 
  2.623369993749e-01 
  1.607712871608e-01 
  1.598533392674e-01 
  1.589353913740e-01 
  1.875613261700e-01 
  1.866433782766e-01 
  2.143513651791e-01 
  1.082710392571e-03 
  2.852535610700e-03 
  4.622360828829e-03 
  1.045876969376e-01 
  1.063575221557e-01 
  2.080926834826e-01 
  1.662635461161e-02 
  7.671399215505e-03 
 -1.283556180599e-03 
  7.462319231408e-03 
 -1.492636164697e-03 
 -1.701716148794e-03 
  2.301371208967e-01 
  2.324013168270e-01 
  2.346655127574e-01 
  2.090172385548e-01 
  2.112814344851e-01 
  1.878973562129e-01 
  2.375109418813e-01 
  2.463253512816e-01 
  2.551397606820e-01 
  2.471961663394e-01 
  2.560105757397e-01 
  2.568813907975e-01 
  2.538615423455e-01 
  2.417296423735e-01 
  2.295977424015e-01 
  2.418242414387e-01 
  2.296923414667e-01 
  2.297869405319e-01 
  2.285624961937e-01 
  2.412182348561e-01 
  2.538739735186e-01 
  2.316034381275e-01 
  2.442591767900e-01 
  2.346443800614e-01 
  2.293421841753e-01 
  2.302194002190e-01 
  2.310966162627e-01 
  2.039215039909e-01 
  2.047987200346e-01 
  1.785008238065e-01 
  1.953783492014e-02 
  6.521420308534e-03 
 -6.494994303070e-03 
  1.156787367110e-01 
  1.026623220994e-01 
  2.118196385020e-01 
  2.355531602839e-01 
  2.012663235078e-01 
  1.669794867316e-01 
  2.110772112252e-01 
  1.767903744491e-01 
  1.866012621666e-01 
  2.348985396091e-01 
  2.346668804784e-01 
  2.344352213477e-01 
  2.011209176690e-01 
  2.008892585382e-01 
  1.673432957288e-01 
  1.194460356998e-01 
  1.525624474939e-01 
  1.856788592881e-01 
  1.425589530583e-01 
  1.756753648524e-01 
  1.656718704168e-01 
  1.704126426133e-01 
  1.452853160572e-01 
  1.201579895011e-01 
  1.351466762680e-01 
  1.100193497119e-01 
  9.988070992263e-02 
  1.842666965521e-01 
  1.760748065045e-01 
  1.678829164569e-01 
  1.901658898869e-01 
  1.819739998393e-01 
  1.960650832217e-01 
  1.675534779576e-01 
  1.757734024705e-01 
  1.839933269834e-01 
  1.439388186227e-01 
  1.521587431356e-01 
  1.203241592878e-01 
  2.173640884361e-01 
  2.062614341017e-01 
  1.951587797674e-01 
  2.196063398215e-01 
  2.085036854871e-01 
  2.218485912069e-01 
  1.868504277596e-01 
  1.906893202013e-01 
  1.945282126430e-01 
  2.086544734346e-01 
  2.124933658762e-01 
  2.304585191095e-01 
  1.205928306816e-01 
  1.109627757972e-01 
  1.013327209127e-01 
  8.732997024784e-02 
  7.769991536339e-02 
  5.406710981404e-02 
  1.194279008929e-01 
  1.424393626564e-01 
  1.654508244198e-01 
  1.107249692401e-01 
  1.337364310036e-01 
  1.020220375873e-01 
  1.647433366658e-01 
  1.431716024540e-01 
  1.215998682423e-01 
  1.335741084522e-01 
  1.120023742405e-01 
  1.024048802386e-01 
  2.302664840376e-01 
  2.128547474959e-01 
  1.954430109542e-01 
  2.179989343983e-01 
  2.005871978565e-01 
  2.057313847589e-01 
  1.769053840835e-01 
  1.720249798033e-01 
  1.671445755232e-01 
  1.387721709796e-01 
  1.338917666994e-01 
  1.006389578756e-01 
  1.774137023249e-01 
  2.045560652829e-01 
  2.316984282409e-01 
  1.734653770330e-01 
  2.006077399910e-01 
  1.695170517411e-01 
  9.980842472896e-02 
  1.072027553051e-01 
  1.145970858813e-01 
  5.006561961101e-02 
  5.745995018718e-02 
  3.228144930582e-04 
  1.162160884760e-01 
  1.078662231331e-01 
  9.951635779015e-02 
  1.425296530665e-01 
  1.341797877236e-01 
  1.688432176570e-01 
  1.850783572550e-01 
  9.585249140710e-02 
  6.626625559235e-03 
  9.220337066050e-02 
  2.977504812641e-03 
 -6.716159339525e-04 
  1.727951079024e-02 
  9.854220672040e-03 
  2.428930553845e-03 
  1.240787180773e-01 
  1.166534279591e-01 
  2.308779253644e-01 
  1.708534641575e-01 
  1.717753121626e-01 
  1.726971601676e-01 
  1.435202328777e-01 
  1.444420808828e-01 
  1.161870015979e-01 
  2.092579508826e-01 
  1.031234181990e-01 
 -3.011114484594e-03 
  1.148998186965e-01 
  8.765286012890e-03 
  2.054168651037e-02 
  2.015040266802e-01 
  2.083753357234e-01 
  2.152466447666e-01 
  1.983657340877e-01 
  2.052370431309e-01 
  1.952274414951e-01 
  2.145673663368e-01 
  2.091045810162e-01 
  2.036417956955e-01 
  2.055062228811e-01 
  2.000434375605e-01 
  1.964450794254e-01 
  1.679945734646e-01 
  1.830452696178e-01 
  1.980959657710e-01 
  1.725616831312e-01 
  1.876123792844e-01 
  1.771287927977e-01 
  1.940760952345e-01 
  1.820959178343e-01 
  1.701157404341e-01 
  1.982049137998e-01 
  1.862247363996e-01 
  2.023337323650e-01 
  1.805573045878e-01 
  1.902709170658e-01 
  1.999845295439e-01 
  1.994852808186e-01 
  2.091988932966e-01 
  2.184132570494e-01 
  1.711277555040e-01 
  1.720461256418e-01 
  1.729644957796e-01 
  1.428578167270e-01 
  1.437761868648e-01 
  1.145878779501e-01 
  2.153092169050e-01 
  2.266709993297e-01 
  2.380327817544e-01 
  2.062714738049e-01 
  2.176332562296e-01 
  1.972337307047e-01 
  2.049590768624e-01 
  1.880057300485e-01 
  1.710523832346e-01 
  1.888555766724e-01 
  1.719022298584e-01 
  1.727520764823e-01 
  2.307407894621e-01 
  2.183586794341e-01 
  2.059765694061e-01 
  2.013631306921e-01 
  1.889810206641e-01 
  1.719854719221e-01 
  1.843649748569e-01 
  2.000543803767e-01 
  2.157437858966e-01 
  9.714827788156e-02 
  1.128376834014e-01 
  9.931580906267e-03 
  1.947555672950e-01 
  1.819413989756e-01 
  1.691272306561e-01 
  2.079658764610e-01 
  1.951517081415e-01 
  2.211761856269e-01 
  5.144378086848e-02 
  1.384915974055e-01 
  2.255394139425e-01 
  1.155902874427e-01 
  2.026381039797e-01 
  1.797367940168e-01 
  1.806677576618e-02 
  8.463946984379e-03 
 -1.138881797421e-03 
  3.613032466565e-02 
  2.652749588385e-02 
  5.419387356512e-02 
  1.647127852729e-02 
  7.252178326907e-03 
 -1.966921873478e-03 
  7.948539632332e-03 
 -1.270560568052e-03 
 -5.741992626273e-04 
  5.486199483968e-02 
  2.775624720162e-02 
  6.504995635583e-04 
  7.583383012749e-02 
  4.872808248942e-02 
  9.680566541529e-02 
  1.484251649169e-01 
  1.230029073130e-01 
  9.758064970917e-02 
  7.345551806909e-02 
  4.803326046525e-02 
 -1.514128778665e-03 
  1.525709121564e-01 
  1.878467444641e-01 
  2.231225767717e-01 
  1.618106995187e-01 
  1.970865318264e-01 
  1.710504868810e-01 
  1.507695562702e-01 
  1.615937618774e-01 
  1.724179674845e-01 
  1.247683390944e-01 
  1.355925447015e-01 
  9.876712191845e-02 
  9.154671870254e-04 
  2.787610846327e-02 
  5.483674973951e-02 
  2.420193216166e-05 
  2.698484320841e-02 
 -8.670633227020e-04 
  1.211168771541e-01 
  8.774989472099e-02 
  5.438291228783e-02 
  1.097789121847e-01 
  7.641192975156e-02 
  9.844094721528e-02 
 -1.000854745575e-03 
  5.182411816441e-04 
  2.037337108864e-03 
  7.396578765609e-02 
  7.548488358331e-02 
  1.489324300578e-01 
  2.362871175019e-01 
  1.214076905825e-01 
  6.528263663167e-03 
  2.262254829186e-01 
  1.113460559992e-01 
  2.161638483352e-01 
  1.983439692334e-01 
  1.450560047368e-01 
  9.176804024029e-02 
  2.127332788433e-01 
  1.594453143468e-01 
  2.271225884532e-01 
  1.005785079374e-01 
  5.137735754674e-02 
  2.176207156086e-03 
  9.882121212728e-02 
  4.962006173662e-02 
  9.706391631716e-02 
  2.222801746395e-01 
  1.117803347314e-01 
  1.280494823403e-03 
  1.137753403015e-01 
  3.275500393412e-03 
  5.270505963422e-03 
  2.163487713222e-01 
  1.075389399183e-01 
 -1.270891485526e-03 
  1.100364060758e-01 
  1.226574672002e-03 
  3.724040829529e-03 
  1.961784519722e-01 
  1.006827841648e-01 
  5.187116357340e-03 
  1.830899818993e-01 
  8.759431409187e-02 
  1.700015118264e-01 
  1.484377315989e-01 
  7.432346724799e-02 
  2.092028970442e-04 
  1.803824087417e-01 
  1.062681443908e-01 
  2.123270858845e-01 
  1.978204634551e-01 
  2.014273509717e-01 
  2.050342384882e-01 
  2.038239652119e-01 
  2.074308527285e-01 
  2.098274669687e-01 
  2.517327586601e-01 
  1.270907213762e-01 
  2.448684092363e-03 
  1.271907434014e-01 
  2.548706117500e-03 
  2.648728142637e-03 
  2.220153568416e-01 
  2.179760910415e-01 
  2.139368252415e-01 
  2.433963362554e-01 
  2.393570704553e-01 
  2.647773156692e-01 
  2.116838052209e-01 
  2.177438550696e-01 
  2.238039049183e-01 
  1.811515051207e-01 
  1.872115549694e-01 
  1.506192050205e-01 
  2.444080927816e-01 
  2.291917446749e-01 
  2.139753965683e-01 
  2.400717642276e-01 
  2.248554161209e-01 
  2.357354356736e-01 
  2.163570818849e-01 
  2.083032923876e-01 
  2.002495028902e-01 
  2.260521023976e-01 
  2.179983129003e-01 
  2.357471229103e-01 
  2.388090948886e-01 
  2.274473183842e-01 
  2.160855418799e-01 
  2.513950711508e-01 
  2.400332946465e-01 
  2.639810474131e-01 
  2.646460348430e-01 
  2.838448358529e-01 
  3.030436368628e-01 
  2.511806945128e-01 
  2.703794955227e-01 
  2.377153541827e-01 
  2.647565650687e-01 
  2.403342234707e-01 
  2.159118818726e-01 
  2.564600290510e-01 
  2.320376874529e-01 
  2.481634930332e-01 
  2.219519242013e-01 
  2.424935641231e-01 
  2.630352040448e-01 
  2.192531447008e-01 
  2.397947846225e-01 
  2.165543652002e-01 
  2.476378290020e-01 
  2.482729862221e-01 
  2.489081434421e-01 
  2.772302152816e-01 
  2.778653725016e-01 
  3.068226015612e-01 
  2.484380323368e-01 
  2.341377522836e-01 
  2.198374722304e-01 
  1.282586788557e-01 
  1.139583988025e-01 
  8.079325374617e-03 
  2.504021658359e-01 
  2.775981939650e-01 
  3.047942220941e-01 
  2.826663216393e-01 
  3.098623497684e-01 
  3.149304774426e-01 
  3.041809694385e-01 
  2.764248336134e-01 
  2.486686977883e-01 
  2.701730387672e-01 
  2.424169029421e-01 
  2.361651080960e-01 
  2.400239833581e-01 
  2.438384979714e-01 
  2.476530125846e-01 
  2.541358750917e-01 
  2.579503897049e-01 
  2.682477668253e-01 
  2.461443277884e-01 
  2.428420855771e-01 
  2.395398433657e-01 
  2.291791173349e-01 
  2.258768751235e-01 
  2.122139068813e-01 
  3.124063561300e-01 
  3.095095404563e-01 
  3.066127247825e-01 
  2.806914029777e-01 
  2.777945873039e-01 
  2.489764498253e-01 
  2.483790239005e-01 
  2.762026414545e-01 
  3.040262590084e-01 
  2.562022229999e-01 
  2.840258405538e-01 
  2.640254220992e-01 
  6.211614651479e-03 
  1.270430426984e-01 
  2.478744707453e-01 
  1.278311046716e-01 
  2.486625327185e-01 
  2.494505946916e-01 