# vtk DataFile Version 2
NuDG++ 2D simulation
ASCII
DATASET UNSTRUCTURED_GRID

POINTS 2244 double
 -1.656250060000e-01  -2.000000030000e-01  0.0
 -1.828125045000e-01  -1.772221997500e-01  0.0
 -2.000000030000e-01  -1.544443965000e-01  0.0
 -1.828125045000e-01  -2.000000030000e-01  0.0
 -2.000000030000e-01  -1.772221997500e-01  0.0
 -2.000000030000e-01  -2.000000030000e-01  0.0
 -6.428571790000e-02  -1.700000018000e-01  0.0
 -8.058035746000e-02  -1.850000024000e-01  0.0
 -9.687499702000e-02  -2.000000030000e-01  0.0
 -6.339285895000e-02  -1.850000024000e-01  0.0
 -7.968749851000e-02  -2.000000030000e-01  0.0
 -6.250000000000e-02  -2.000000030000e-01  0.0
 -2.000000030000e-01  -1.544443965000e-01  0.0
 -1.750000045000e-01  -1.379364989500e-01  0.0
 -1.500000060000e-01  -1.214286014000e-01  0.0
 -2.000000030000e-01  -1.316666491500e-01  0.0
 -1.750000045000e-01  -1.151587516000e-01  0.0
 -2.000000030000e-01  -1.088889018000e-01  0.0
 -1.500000060000e-01  -1.214286014000e-01  0.0
 -1.750000045000e-01  -1.379364989500e-01  0.0
 -2.000000030000e-01  -1.544443965000e-01  0.0
 -1.500000060000e-01  -1.457143016000e-01  0.0
 -1.750000045000e-01  -1.622221991500e-01  0.0
 -1.500000060000e-01  -1.700000018000e-01  0.0
 -1.500000060000e-01  -7.285714149000e-02  0.0
 -1.750000045000e-01  -9.087302164500e-02  0.0
 -2.000000030000e-01  -1.088889018000e-01  0.0
 -1.500000060000e-01  -9.714287144500e-02  0.0
 -1.750000045000e-01  -1.151587516000e-01  0.0
 -1.500000060000e-01  -1.214286014000e-01  0.0
  1.832975030000e+00  -4.625000060000e-02  0.0
  1.853987515000e+00  -1.231250018000e-01  0.0
  1.875000000000e+00  -2.000000030000e-01  0.0
  1.916487515000e+00  -7.187499851000e-02  0.0
  1.937500000000e+00  -1.487499997100e-01  0.0
  2.000000000000e+00  -9.749999642000e-02  0.0
 -1.500000060000e-01  -1.700000018000e-01  0.0
 -1.360000037000e-01  -1.525000036000e-01  0.0
 -1.220000014000e-01  -1.350000054000e-01  0.0
 -1.500000060000e-01  -1.457143016000e-01  0.0
 -1.360000037000e-01  -1.282143034000e-01  0.0
 -1.500000060000e-01  -1.214286014000e-01  0.0
  2.849999964000e-01  -2.333333530000e-02  0.0
  2.837499976000e-01  -8.166666795000e-02  0.0
  2.824999988000e-01  -1.400000006000e-01  0.0
  3.174999952000e-01  -4.666666780000e-02  0.0
  3.162499964000e-01  -1.050000004500e-01  0.0
  3.499999940000e-01  -7.000000030000e-02  0.0
 -1.071429029000e-01  -1.700000018000e-01  0.0
 -8.571431040000e-02  -1.700000018000e-01  0.0
 -6.428571790000e-02  -1.700000018000e-01  0.0
 -9.857145324000e-02  -1.525000036000e-01  0.0
 -7.714286074000e-02  -1.525000036000e-01  0.0
 -9.000000358000e-02  -1.350000054000e-01  0.0
 -1.312499940000e-01  -2.000000030000e-01  0.0
 -1.191964484500e-01  -1.850000024000e-01  0.0
 -1.071429029000e-01  -1.700000018000e-01  0.0
 -1.406250000000e-01  -1.850000024000e-01  0.0
 -1.285714544500e-01  -1.700000018000e-01  0.0
 -1.500000060000e-01  -1.700000018000e-01  0.0
 -1.220000014000e-01  -1.350000054000e-01  0.0
 -1.060000024900e-01  -1.350000054000e-01  0.0
 -9.000000358000e-02  -1.350000054000e-01  0.0
 -1.185000017500e-01  -1.175000034500e-01  0.0
 -1.025000028400e-01  -1.175000034500e-01  0.0
 -1.150000021000e-01  -1.000000015000e-01  0.0
 -9.000000358000e-02  -1.350000054000e-01  0.0
 -1.060000024900e-01  -1.350000054000e-01  0.0
 -1.220000014000e-01  -1.350000054000e-01  0.0
 -9.857145324000e-02  -1.525000036000e-01  0.0
 -1.145714521500e-01  -1.525000036000e-01  0.0
 -1.071429029000e-01  -1.700000018000e-01  0.0
 -7.778175920000e-02  -9.192386270000e-02  0.0
 -9.639088065000e-02  -9.596193210000e-02  0.0
 -1.150000021000e-01  -1.000000015000e-01  0.0
 -8.389088139000e-02  -1.134619340500e-01  0.0
 -1.025000028400e-01  -1.175000034500e-01  0.0
 -9.000000358000e-02  -1.350000054000e-01  0.0
 -1.220000014000e-01  -1.350000054000e-01  0.0
 -1.185000017500e-01  -1.175000034500e-01  0.0
 -1.150000021000e-01  -1.000000015000e-01  0.0
 -1.360000037000e-01  -1.282143034000e-01  0.0
 -1.325000040500e-01  -1.107143014500e-01  0.0
 -1.500000060000e-01  -1.214286014000e-01  0.0
 -7.778175920000e-02  -9.192386270000e-02  0.0
 -8.389088139000e-02  -1.134619340500e-01  0.0
 -9.000000358000e-02  -1.350000054000e-01  0.0
 -6.639088876500e-02  -1.022535823500e-01  0.0
 -7.250001095500e-02  -1.237916537000e-01  0.0
 -5.500001833000e-02  -1.125833020000e-01  0.0
 -1.071429029000e-01  -1.700000018000e-01  0.0
 -1.145714521500e-01  -1.525000036000e-01  0.0
 -1.220000014000e-01  -1.350000054000e-01  0.0
 -1.285714544500e-01  -1.700000018000e-01  0.0
 -1.360000037000e-01  -1.525000036000e-01  0.0
 -1.500000060000e-01  -1.700000018000e-01  0.0
  6.250000093000e-03  -2.000000030000e-01  0.0
  4.062500153650e-02  -2.000000030000e-01  0.0
  7.500000298000e-02  -2.000000030000e-01  0.0
  1.383928512150e-02  -1.850000024000e-01  0.0
  4.821428656500e-02  -1.850000024000e-01  0.0
  2.142857015000e-02  -1.700000018000e-01  0.0
 -1.500000060000e-01  -7.285714149000e-02  0.0
 -1.500000060000e-01  -9.714287144500e-02  0.0
 -1.500000060000e-01  -1.214286014000e-01  0.0
 -1.325000040500e-01  -8.642857149500e-02  0.0
 -1.325000040500e-01  -1.107143014500e-01  0.0
 -1.150000021000e-01  -1.000000015000e-01  0.0
 -2.000000030000e-01  -6.333333254000e-02  0.0
 -1.750000045000e-01  -6.809523701500e-02  0.0
 -1.500000060000e-01  -7.285714149000e-02  0.0
 -1.750000045000e-01  -4.380952660000e-02  0.0
 -1.500000060000e-01  -4.857143107500e-02  0.0
 -1.500000060000e-01  -2.428572066000e-02  0.0
 -2.000000030000e-01  -6.333333254000e-02  0.0
 -2.000000030000e-01  -8.611111717000e-02  0.0
 -2.000000030000e-01  -1.088889018000e-01  0.0
 -1.750000045000e-01  -6.809523701500e-02  0.0
 -1.750000045000e-01  -9.087302164500e-02  0.0
 -1.500000060000e-01  -7.285714149000e-02  0.0
 -2.000000030000e-01  -6.333333254000e-02  0.0
 -1.750000045000e-01  -4.380952660000e-02  0.0
 -1.500000060000e-01  -2.428572066000e-02  0.0
 -2.000000030000e-01  -4.055555630500e-02  0.0
 -1.750000045000e-01  -2.103175036500e-02  0.0
 -2.000000030000e-01  -1.777778007000e-02  0.0
 -1.500000060000e-01  -2.428572066000e-02  0.0
 -1.500000060000e-01  -4.857143107500e-02  0.0
 -1.500000060000e-01  -7.285714149000e-02  0.0
 -1.281259023000e-01  -2.896608505500e-02  0.0
 -1.281259023000e-01  -5.325179547000e-02  0.0
 -1.062517986000e-01  -3.364644945000e-02  0.0
 -1.099999994000e-01   1.996667010000e-08  0.0
 -1.300000027000e-01  -1.214285034666e-02  0.0
 -1.500000060000e-01  -2.428572066000e-02  0.0
 -1.081258990000e-01  -1.682321474166e-02  0.0
 -1.281259023000e-01  -2.896608505500e-02  0.0
 -1.062517986000e-01  -3.364644945000e-02  0.0
 -1.500000060000e-01  -2.428572066000e-02  0.0
 -1.500000060000e-01   0.000000000000e+00  0.0
 -1.500000060000e-01   2.428572066000e-02  0.0
 -1.750000045000e-01  -2.103175036500e-02  0.0
 -1.750000045000e-01   3.253970295000e-03  0.0
 -2.000000030000e-01  -1.777778007000e-02  0.0
 -1.500000060000e-01  -7.285714149000e-02  0.0
 -1.226314045700e-01  -6.892856210000e-02  0.0
 -9.526280314000e-02  -6.499998271000e-02  0.0
 -1.281259023000e-01  -5.325179547000e-02  0.0
 -1.007573008700e-01  -4.932321608000e-02  0.0
 -1.062517986000e-01  -3.364644945000e-02  0.0
  3.499999940000e-01   1.400000006000e-01  0.0
  4.021931737500e-01   1.224999986500e-01  0.0
  4.543863535000e-01   1.049999967000e-01  0.0
  4.187500029500e-01   1.749999970000e-01  0.0
  4.709431827000e-01   1.574999950500e-01  0.0
  4.875000119000e-01   2.099999934000e-01  0.0
 -7.101409137000e-02  -4.349999130000e-02  0.0
 -8.313844725500e-02  -5.424998700500e-02  0.0
 -9.526280314000e-02  -6.499998271000e-02  0.0
 -6.449843011500e-02  -5.250913650000e-02  0.0
 -7.662278600000e-02  -6.325913220500e-02  0.0
 -5.798276886000e-02  -6.151828170000e-02  0.0
 -9.526280314000e-02  -6.499998271000e-02  0.0
 -1.226314045700e-01  -6.892856210000e-02  0.0
 -1.500000060000e-01  -7.285714149000e-02  0.0
 -1.051314026200e-01  -8.249999210500e-02  0.0
 -1.325000040500e-01  -8.642857149500e-02  0.0
 -1.150000021000e-01  -1.000000015000e-01  0.0
 -6.181925908000e-02  -1.656441018000e-02  0.0
 -7.051259093000e-02  -1.954082492500e-02  0.0
 -7.920592278000e-02  -2.251723967000e-02  0.0
 -5.862244405000e-02  -2.428220026000e-02  0.0
 -6.731577590000e-02  -2.725861500500e-02  0.0
 -5.542562902000e-02  -3.199999034000e-02  0.0
 -7.920592278000e-02  -2.251723967000e-02  0.0
 -9.272886069000e-02  -2.808184456000e-02  0.0
 -1.062517986000e-01  -3.364644945000e-02  0.0
 -7.511000707500e-02  -3.300861548500e-02  0.0
 -8.863294498500e-02  -3.857322037500e-02  0.0
 -7.101409137000e-02  -4.349999130000e-02  0.0
 -7.101409137000e-02  -4.349999130000e-02  0.0
 -6.321986019500e-02  -3.774999082000e-02  0.0
 -5.542562902000e-02  -3.199999034000e-02  0.0
 -7.511000707500e-02  -3.300861548500e-02  0.0
 -6.731577590000e-02  -2.725861500500e-02  0.0
 -7.920592278000e-02  -2.251723967000e-02  0.0
 -7.920592278000e-02  -2.251723967000e-02  0.0
 -9.460296109000e-02  -1.125860985166e-02  0.0
 -1.099999994000e-01   1.996667010000e-08  0.0
 -9.272886069000e-02  -2.808184456000e-02  0.0
 -1.081258990000e-01  -1.682321474166e-02  0.0
 -1.062517986000e-01  -3.364644945000e-02  0.0
 -7.778175920000e-02  -9.192386270000e-02  0.0
 -6.788226403000e-02  -7.672107220000e-02  0.0
 -5.798276886000e-02  -6.151828170000e-02  0.0
 -8.652228117000e-02  -7.846192270500e-02  0.0
 -7.662278600000e-02  -6.325913220500e-02  0.0
 -9.526280314000e-02  -6.499998271000e-02  0.0
 -7.101409137000e-02  -4.349999130000e-02  0.0
 -8.863294498500e-02  -3.857322037500e-02  0.0
 -1.062517986000e-01  -3.364644945000e-02  0.0
 -8.313844725500e-02  -5.424998700500e-02  0.0
 -1.007573008700e-01  -4.932321608000e-02  0.0
 -9.526280314000e-02  -6.499998271000e-02  0.0
 -7.778175920000e-02  -9.192386270000e-02  0.0
 -8.652228117000e-02  -7.846192270500e-02  0.0
 -9.526280314000e-02  -6.499998271000e-02  0.0
 -9.639088065000e-02  -9.596193210000e-02  0.0
 -1.051314026200e-01  -8.249999210500e-02  0.0
 -1.150000021000e-01  -1.000000015000e-01  0.0
[...]
POINT_DATA 2244
SCALARS field1 double 1
LOOKUP_TABLE default
  2.176441077090e-03 
  3.441553785320e-02 
  6.665463462930e-02 
  1.369234358139e-03 
  3.360833113424e-02 
  5.620276391879e-04 
  1.419720163839e-01 
  7.175438266854e-02 
  1.536748953218e-03 
  7.161372653768e-02 
  1.396092822353e-03 
  1.255436691488e-03 
  6.527356110720e-02 
  8.443495486826e-02 
  1.035963486293e-01 
  9.049043080464e-02 
  1.096518245657e-01 
  1.157073005021e-01 
  1.049505204991e-01 
  8.430786058292e-02 
  6.366520066673e-02 
  8.886147795954e-02 
  6.821881804334e-02 
  7.277243541996e-02 
  1.398660014704e-01 
  1.278338125604e-01 
  1.158016236504e-01 
  1.226749224487e-01 
  1.106427335387e-01 
  1.054838434270e-01 
  1.615738621285e-01 
  1.043705052866e-01 
  4.716714844479e-02 
  1.534081973223e-01 
  9.620484048048e-02 
  1.452425325162e-01 
  7.481430896312e-02 
  9.593845937982e-02 
  1.170626097965e-01 
  9.034019935058e-02 
  1.114643497673e-01 
  1.058660897380e-01 
  1.230701792045e-01 
  1.329889524593e-01 
  1.429077257141e-01 
  1.265325968292e-01 
  1.364513700840e-01 
  1.299950144539e-01 
  1.164872850946e-01 
  1.276587418296e-01 
  1.388301985646e-01 
  1.207338558174e-01 
  1.319053125524e-01 
  1.249804265401e-01 
  3.361028687491e-03 
  6.083272026461e-02 
  1.183044118417e-01 
  3.898506657114e-02 
  9.645675814826e-02 
  7.460910445480e-02 
  1.134588074236e-01 
  1.175093041765e-01 
  1.215598009293e-01 
  1.180922175795e-01 
  1.221427143324e-01 
  1.227256277355e-01 
  1.227438906808e-01 
  1.182730997903e-01 
  1.138023088999e-01 
  1.199494714306e-01 
  1.154786805402e-01 
  1.171550521804e-01 
  1.424905104146e-01 
  1.324006976983e-01 
  1.223108849819e-01 
  1.326145985876e-01 
  1.225247858713e-01 
  1.227386867606e-01 
  1.141612702628e-01 
  1.191896653719e-01 
  1.242180604810e-01 
  1.109907202810e-01 
  1.160191153901e-01 
  1.078201702992e-01 
  1.426732438207e-01 
  1.337089327533e-01 
  1.247446216859e-01 
  1.481681099423e-01 
  1.392037988749e-01 
  1.536629760639e-01 
  1.166537689247e-01 
  1.162290738692e-01 
  1.158043788136e-01 
  9.609050407781e-02 
  9.566580902228e-02 
  7.552723923092e-02 
  1.456551668279e-03 
  2.070046749048e-03 
  2.683541829816e-03 
  8.172068354237e-02 
  8.233417862313e-02 
  1.619848154165e-01 
  1.390605096571e-01 
  1.232027723745e-01 
  1.073450350919e-01 
  1.322334873202e-01 
  1.163757500376e-01 
  1.254064649833e-01 
  1.515867225526e-01 
  1.449902751078e-01 
  1.383938276630e-01 
  1.523036712367e-01 
  1.457072237919e-01 
  1.530206199207e-01 
  1.503601735291e-01 
  1.334863651539e-01 
  1.166125567786e-01 
  1.449420048333e-01 
  1.280681964580e-01 
  1.395238361375e-01 
  1.512988625048e-01 
  1.527451446773e-01 
  1.541914268497e-01 
  1.596823464431e-01 
  1.611286286156e-01 
  1.680658303814e-01 
  1.506519328552e-01 
  1.449176240440e-01 
  1.391833152327e-01 
  1.328138745946e-01 
  1.270795657834e-01 
  1.149758163340e-01 
  9.910743290154e-02 
  1.242517020373e-01 
  1.493959711730e-01 
  1.072619117411e-01 
  1.324061808768e-01 
  1.154163905806e-01 
  1.504438801006e-01 
  1.505736716788e-01 
  1.507034632571e-01 
  1.603468294999e-01 
  1.604766210781e-01 
  1.702497788992e-01 
  1.385378110621e-01 
  1.325764762000e-01 
  1.266151413379e-01 
  1.267033305256e-01 
  1.207419956636e-01 
  1.148688499892e-01 
  1.479674794261e-01 
  1.511899616653e-01 
  1.544124439046e-01 
  9.221163699744e-02 
  9.543411923669e-02 
  3.645579456879e-02 
  1.018173972091e-01 
  1.153617501635e-01 
  1.289061031179e-01 
  1.195302206576e-01 
  1.330745736120e-01 
  1.372430441061e-01 
  1.275763453469e-01 
  1.329058055107e-01 
  1.382352656745e-01 
  1.266623334490e-01 
  1.319917936128e-01 
  1.257483215510e-01 
  3.366431118321e-02 
  5.660061685868e-02 
  7.953692253415e-02 
  4.528640851951e-02 
  6.822271419498e-02 
  5.690850585581e-02 
  7.900088285590e-02 
  9.672337082630e-02 
  1.144458587967e-01 
  9.015329289770e-02 
  1.078757808681e-01 
  1.013057029395e-01 
  1.013428645493e-01 
  7.958137684791e-02 
  5.781988914649e-02 
  9.010179249149e-02 
  6.834030479007e-02 
  7.886072043365e-02 
  7.886518487594e-02 
  8.919058343604e-02 
  9.951598199614e-02 
  9.688696866860e-02 
  1.072123672287e-01 
  1.149087524613e-01 
  1.429067661687e-01 
  1.403326998669e-01 
  1.377586335650e-01 
  1.358650927278e-01 
  1.332910264259e-01 
  1.288234192868e-01 
  1.021010324384e-01 
  1.080527209587e-01 
  1.140044094790e-01 
  1.152546165857e-01 
  1.212063051060e-01 
  1.284082007331e-01 
  1.418863232948e-01 
  1.353616616402e-01 
  1.288369999855e-01 
  1.330495753109e-01 
  1.265249136563e-01 
  1.242128273270e-01 
  7.915931853170e-02 
  5.632672339995e-02 
  3.349412826819e-02 
  7.089860338839e-02 
  4.806600825663e-02 
  6.263788824507e-02 
  1.518598348531e-01 
  1.389322059406e-01 
  1.260045770280e-01 
  1.454102168476e-01 
  1.324825879350e-01 
  1.389605988420e-01 
  1.445017771719e-01 
  1.477737138855e-01 
  1.510456505992e-01 
  1.308816901601e-01 
  1.341536268737e-01 
  1.172616031483e-01 
  1.575803312073e-01 
  1.565560081461e-01 
  1.555316850848e-01 
  1.619079652717e-01 
  1.608836422104e-01 
  1.662355993361e-01 
  1.554036519923e-01 
  1.527851055147e-01 
  1.501665590371e-01 
  1.473803120509e-01 
  1.447617655733e-01 
  1.393569721095e-01 
  1.421459974937e-01 
  1.550108896444e-01 
  1.678757817950e-01 
  1.399026658906e-01 
  1.527675580413e-01 
  1.376593342875e-01 
  1.684162521018e-01 
  1.552696271009e-01 
  1.421230021001e-01 
  1.603810675762e-01 
  1.472344425754e-01 
  1.523458830507e-01 
  1.938175090059e-01 
  1.821102179067e-01 
  1.704029268075e-01 
  1.720325411616e-01 
  1.603252500624e-01 
  1.502475733173e-01 
  1.423576849333e-01 
  1.396588189382e-01 
  1.369599529430e-01 
  1.564105076310e-01 
  1.537116416359e-01 
  1.704633303288e-01 
  1.491698353861e-01 
  1.526053155531e-01 
  1.560407957201e-01 
  1.715490476859e-01 
  1.749845278529e-01 
  1.939282599857e-01 
  1.567341946264e-01 
  1.481885625225e-01 
  1.396429304186e-01 
  1.559457905659e-01 
  1.474001584620e-01 
  1.551573865054e-01 
  2.032416417147e-01 
  1.992067774946e-01 
  1.951719132745e-01 
  1.801153991914e-01 
  1.760805349713e-01 
  1.569891566680e-01 
  1.034066859900e-03 
  8.861753152634e-02 
  1.762009961928e-01 
  1.078176990271e-03 
  8.866164165671e-02 
  1.122287120641e-03 
  1.977133177334e-01 
  1.862416949669e-01 
  1.747700722004e-01 
  1.813655013297e-01 
  1.698938785632e-01 
  1.650176849259e-01 
  1.756426246517e-01 
  1.864199559272e-01 
  1.971972872027e-01 
  1.891940873719e-01 
  1.999714186474e-01 
  2.027455500920e-01 
  1.643073630746e-01 
  1.696766062413e-01 
  1.750458494081e-01 
  8.360765852187e-02 
  8.897690168862e-02 
  2.907953969145e-03 
  1.957766262520e-01 
  1.814603274380e-01 
  1.671440286239e-01 
  1.837818413564e-01 
  1.694655425423e-01 
  1.717870564607e-01 
  1.951461469680e-01 
  1.850253571504e-01 
  1.749045673327e-01 
  1.985710486964e-01 
  1.884502588788e-01 
  2.019959504248e-01 
  2.017827246320e-01 
  1.798105894952e-01 
  1.578384543584e-01 
  1.828925010718e-01 
  1.609203659350e-01 
  1.640022775116e-01 
  1.552187693102e-01 
  1.554149728392e-01 
  1.556111763682e-01 
  1.605986802958e-01 
  1.607948838248e-01 
  1.659785912814e-01 
  1.417350180372e-01 
  1.571405965769e-01 
  1.725461751166e-01 
  1.540842255074e-01 
  1.694898040471e-01 
  1.664334329776e-01 
 -8.897589372602e-04 
  2.930231338537e-02 
  5.949438570801e-02 
  1.101267839926e-03 
  3.129334016256e-02 
  3.092294617111e-03 
  5.873686722195e-02 
  7.960482307199e-02 
  1.004727789220e-01 
  8.178118977223e-02 
  1.026491456223e-01 
  1.048255123225e-01 
  1.362774651662e-01 
  7.134551370645e-02 
  6.413562246688e-03 
  6.762618619930e-02 
  2.694234739535e-03 
 -1.025092767619e-03 
 -1.356090005739e-03 
  5.119145120236e-03 
  1.159438024621e-02 
  1.597536266574e-02 
  2.245059779172e-02 
  3.330681533723e-02 
  2.601431510495e-04 
 -1.039237187099e-03 
 -2.338617525247e-03 
  2.790874709082e-02 
  2.660936675267e-02 
  5.555735103059e-02 
  1.276789359372e-01 
  6.538711233336e-02 
  3.095288729492e-03 
  1.048539391595e-01 
  4.256211555562e-02 
  8.202894238175e-02 
  5.926968356813e-02 
  8.294235076879e-02 
  1.066150179695e-01 
  3.166498909732e-02 
  5.533765629799e-02 
  4.060294626519e-03 
 -2.706027831251e-03 
  1.536886283430e-02 
  3.344375349986e-02 
  2.639877412781e-02 
  4.447366479337e-02 
  5.550357608688e-02 
  1.342547678198e-03 
  1.401310702537e-03 
  1.460073726876e-03 
  8.379948620277e-02 
  8.385824922711e-02 
  1.662564247273e-01 
  1.730112480669e-03 
  8.946972890984e-02 
  1.772093453390e-01 
  1.733586959749e-03 
  8.947320338892e-02 
  1.737061438829e-03 
  1.643289825009e-01 
  8.623205874176e-02 
  8.135134982598e-03 
  1.540287799851e-01 
  7.593185622592e-02 
  1.437285774692e-01 
  7.810344776847e-04 
  5.544748463492e-02 
  1.101139347922e-01 
  2.015930814730e-03 
  5.668238097196e-02 
  3.250827151775e-03 
  3.272647328943e-03 
  7.255974287206e-02 
  1.418468384152e-01 
  8.418865010300e-02 
  1.534757456461e-01 
  1.651046528771e-01 
  1.559677995583e-01 
  8.117259409048e-02 
  6.377388622642e-03 
  1.563147208987e-01 
  8.151951543082e-02 
  1.566616422390e-01 
  1.207598663063e-01 
  6.114498584637e-02 
  1.530105386431e-03 
  6.154989417075e-02 
  1.935013710809e-03 
  2.339922035186e-03 
  5.342779963842e-03 
  5.696473277341e-02 
  1.085866855830e-01 
  7.315577630058e-02 
  1.247777291102e-01 
  1.409687726373e-01 
  1.063581447406e-01 
  1.220148000571e-01 
  1.376714553736e-01 
  1.239512485329e-01 
  1.396079038494e-01 
  1.415443523251e-01 
  1.423182048086e-01 
  7.432707792530e-02 
  6.335951041972e-03 
  1.482136408946e-01 
  8.022251401130e-02 
  1.541090769806e-01 
  2.008073778065e-01 
  1.823715063989e-01 
  1.639356349913e-01 
  1.810963146065e-01 
  1.626604431989e-01 
  1.613852514066e-01 
  1.051042896027e-01 
  1.026979199242e-01 
  1.002915502458e-01 
  1.214745967775e-01 
  1.190682270991e-01 
  1.378449039524e-01 
  8.786599464263e-04 
  2.400817717891e-03 
  3.922975489356e-03 
  7.296820322969e-02 
  7.449036100115e-02 
  1.450577465130e-01 
  1.035505150493e-02 
  4.887508935222e-03 
 -5.800336344837e-04 
  4.593103334721e-03 
 -8.744392349849e-04 
 -1.168844835486e-03 
  1.479619709295e-01 
  1.483211819773e-01 
  1.486803930251e-01 
  1.310423148273e-01 
  1.314015258751e-01 
  1.141226587250e-01 
  1.528164659306e-01 
  1.600239213056e-01 
  1.672313766807e-01 
  1.609230606771e-01 
  1.681305160521e-01 
  1.690296554236e-01 
  1.664938825704e-01 
  1.579931227091e-01 
  1.494923628479e-01 
  1.586643577677e-01 
  1.501635979064e-01 
  1.508348329650e-01 
  1.479946809294e-01 
  1.575313382351e-01 
  1.670679955409e-01 
  1.489746505665e-01 
  1.585113078723e-01 
  1.499546202037e-01 
  1.506829870286e-01 
  1.505471298933e-01 
  1.504112727579e-01 
  1.338187803400e-01 
  1.336829232046e-01 
  1.169545736513e-01 
  2.436732511618e-02 
  1.328574177653e-02 
  2.204158436876e-03 
  9.277173519273e-02 
  8.169015185308e-02 
  1.611761452693e-01 
  1.482190715521e-01 
  1.239074558038e-01 
  9.959584005541e-02 
  1.313550751216e-01 
  1.070434593732e-01 
  1.144910786910e-01 
  1.481885600456e-01 
  1.484686491019e-01 
  1.487487381582e-01 
  1.232601824174e-01 
  1.235402714737e-01 
  9.833180478925e-02 
  7.779060641098e-02 
  9.582508924988e-02 
  1.138595720888e-01 
  8.895597795125e-02 
  1.069904607902e-01 
  1.001213494915e-01 
  1.084147316322e-01 
  9.271443178509e-02 
  7.701413193801e-02 
  8.612796264844e-02 
  7.042766280137e-02 
  6.384119366472e-02 
  1.125415095121e-01 
  1.097688272424e-01 
  1.069961449728e-01 
  1.183985729083e-01 
  1.156258906387e-01 
  1.242556363045e-01 
  1.065805912087e-01 
  1.096838179233e-01 
  1.127870446378e-01 
  9.224098110088e-02 
  9.534420781544e-02 
  7.790137099307e-02 
  1.416335248587e-01 
  1.329146853314e-01 
  1.241958458040e-01 
  1.421751963422e-01 
  1.334563568148e-01 
  1.427168678257e-01 
  1.138832611125e-01 
  1.186495959880e-01 
  1.234159308634e-01 
  1.307551439620e-01 
  1.355214788375e-01 
  1.476270268115e-01 
  7.743237860668e-02 
  6.989751917778e-02 
  6.236265974889e-02 
  5.501537476912e-02 
  4.748051534023e-02 
  3.259837093156e-02 
  7.733591056700e-02 
  8.889869409547e-02 
  1.004614776239e-01 
  7.022784338567e-02 
  8.179062691414e-02 
  6.311977620435e-02 
  1.000149143091e-01 
  8.924451169162e-02 
  7.847410907415e-02 
  8.167342091262e-02 
  7.090301829516e-02 
  6.333192751616e-02 
  1.473380628884e-01 
  1.357915458527e-01 
  1.242450288171e-01 
  1.389589033892e-01 
  1.274123863536e-01 
  1.305797438901e-01 
  1.155129809060e-01 
  1.116980100158e-01 
  1.078830391256e-01 
  9.041299819495e-02 
  8.659802730473e-02 
  6.531301548391e-02 
  1.160990680432e-01 
  1.330792058596e-01 
  1.500593436760e-01 
  1.127161171954e-01 
  1.296962550118e-01 
  1.093331663476e-01 
  6.444302557221e-02 
  7.260246567661e-02 
  8.076190578101e-02 
  3.230837339389e-02 
  4.046781349829e-02 
  1.737212155629e-04 
  8.251509654004e-02 
  7.319003251087e-02 
  6.386496848170e-02 
  9.606425768531e-02 
  8.673919365614e-02 
  1.096134188306e-01 
  1.337049344877e-01 
  6.926957065341e-02 
  4.834206819092e-03 
  6.688998775661e-02 
  2.454623922285e-03 
  7.504102547928e-05 
  1.598203937249e-02 
  8.603377286541e-03 
  1.224715200595e-03 
  8.703892121402e-02 
  7.966025912807e-02 
  1.580958030555e-01 
  1.113145382990e-01 
  1.156129469839e-01 
  1.199113556687e-01 
  9.740015822379e-02 
  1.016985669086e-01 
  8.348577814853e-02 
  1.447482574911e-01 
  7.146143904784e-02 
 -1.825379395424e-03 
  8.087287587122e-02 
  7.586057427961e-03 
  1.699749425135e-02 
  1.271649309749e-01 
  1.338042672589e-01 
  1.404436035429e-01 
  1.273675632782e-01 
  1.340068995622e-01 
  1.275701955814e-01 
  1.401734712570e-01 
  1.346533851184e-01 
  1.291332989798e-01 
  1.327751333383e-01 
  1.272550471997e-01 
  1.253767954196e-01 
  1.156621807734e-01 
  1.225556970211e-01 
  1.294492132688e-01 
  1.218219483872e-01 
  1.287154646349e-01 
  1.279817160010e-01 
  1.267959437562e-01 
  1.218352797379e-01 
  1.168746157195e-01 
  1.272231702736e-01 
  1.222625062553e-01 
  1.276503967910e-01 
  1.299415153775e-01 
  1.305431047587e-01 
  1.311446941400e-01 
  1.385765833244e-01 
  1.391781727056e-01 
  1.472116512713e-01 
  1.180891123896e-01 
  1.217906394011e-01 
  1.254921664127e-01 
  1.006359903276e-01 
  1.043375173392e-01 
  8.318286826573e-02 
  1.405734786427e-01 
  1.470477509233e-01 
  1.535220232039e-01 
  1.350465203541e-01 
  1.415207926347e-01 
  1.295195620656e-01 
  1.294304460726e-01 
  1.236246866221e-01 
  1.178189271717e-01 
  1.211926860718e-01 
  1.153869266213e-01 
  1.129549260709e-01 
  1.484386443523e-01 
  1.394618408097e-01 
  1.304850372671e-01 
  1.302571089235e-01 
  1.212803053809e-01 
  1.120755734947e-01 
  1.323834085018e-01 
  1.392707471916e-01 
  1.461580858813e-01 
  7.048633898083e-02 
  7.737367767059e-02 
  8.589269459854e-03 
  1.237767297684e-01 
  1.158191544127e-01 
  1.078615790570e-01 
  1.331540519108e-01 
  1.251964765551e-01 
  1.425313740533e-01 
  4.906185404330e-02 
  1.062597905287e-01 
  1.634577270142e-01 
  9.404143831680e-02 
  1.512393748022e-01 
  1.390210225903e-01 
  1.116165100634e-02 
  5.306025516819e-03 
 -5.495999726992e-04 
  2.219565561497e-02 
  1.634003012546e-02 
  3.322966022361e-02 
  1.020065975841e-02 
  4.455802855681e-03 
 -1.289054047051e-03 
  4.959351085054e-03 
 -7.855058176777e-04 
 -2.819575883048e-04 
  3.371023325098e-02 
  1.731771231281e-02 
  9.251913746537e-04 
  4.804751129161e-02 
  3.165499035345e-02 
  6.238478933225e-02 
  9.668529534803e-02 
  7.994652108078e-02 
  6.320774681354e-02 
  4.800698376269e-02 
  3.126820949544e-02 
 -6.713278226550e-04 
  9.938156849518e-02 
  1.215305031760e-01 
  1.436794378568e-01 
  1.041057034914e-01 
  1.262546381722e-01 
  1.088298384876e-01 
  9.831022707713e-02 
  1.039722859460e-01 
  1.096343448148e-01 
  8.094095272276e-02 
  8.660301159160e-02 
  6.357167836839e-02 
  8.635855201704e-04 
  1.734731561686e-02 
  3.383104571355e-02 
  1.500091572699e-04 
  1.663373925396e-02 
 -5.635672056306e-04 
  7.743988735921e-02 
  5.530228068976e-02 
  3.316467402030e-02 
  7.026398702136e-02 
  4.812638035190e-02 
  6.308808668351e-02 
 -5.949878807148e-04 
  2.153924438540e-04 
  1.025772768423e-03 
  4.817054109622e-02 
  4.898092142078e-02 
  9.693607007315e-02 
  1.594199052758e-01 
  8.264402540768e-02 
  5.868145539610e-03 
  1.516336780931e-01 
  7.485779822506e-02 
  1.438474509105e-01 
  1.393713475060e-01 
  1.080642339233e-01 
  7.675712034066e-02 
  1.371537785110e-01 
  1.058466649284e-01 
  1.349362095161e-01 
  6.523806625590e-02 
  3.374897123872e-02 
  2.259876221532e-03 
  6.814755442532e-02 
  3.665845940814e-02 
  7.105704259475e-02 
  1.468541587915e-01 
  7.383735516550e-02 
  8.205515395270e-04 
  7.521701613493e-02 
  2.200212508953e-03 
  3.579873478379e-03 
  1.429583121179e-01 
  7.098532695435e-02 
 -9.876582092096e-04 
  7.262037409944e-02 
  6.473889358755e-04 
  2.282436080961e-03 
  1.371114734219e-01 
  7.093941817381e-02 
  4.767362925763e-03 
  1.273401789966e-01 
  6.116812374855e-02 
  1.175688845713e-01 
  9.690340213775e-02 
  4.843228321373e-02 
 -3.883571028084e-05 
  1.187202727808e-01 
  7.024915385681e-02 
  1.405371434239e-01 
  1.218166119070e-01 
  1.315261037674e-01 
  1.412355956278e-01 
  1.304733264271e-01 
  1.401828182875e-01 
  1.391300409472e-01 
  1.707325549152e-01 
  8.618245965810e-02 
  1.632364400960e-03 
  8.658596891564e-02 
  2.035873658498e-03 
  2.439382916037e-03 
  1.429260924200e-01 
  1.422613720288e-01 
  1.415966516377e-01 
  1.573084967606e-01 
  1.566437763694e-01 
  1.716909011012e-01 
  1.401825987382e-01 
  1.421390801307e-01 
  1.440955615233e-01 
  1.192355446729e-01 
  1.211920260655e-01 
  9.828849060771e-02 
  1.536398002463e-01 
  1.487287893441e-01 
  1.438177784419e-01 
  1.523508386350e-01 
  1.474398277328e-01 
  1.510618770238e-01 
  1.453772930405e-01 
  1.386114308145e-01 
  1.318455685886e-01 
  1.483887176922e-01 
  1.416228554662e-01 
  1.514001423439e-01 
  1.534413141028e-01 
  1.471076908568e-01 
  1.407740676109e-01 
  1.622358323739e-01 
  1.559022091280e-01 
  1.710303506450e-01 
  1.719377558945e-01 
  1.841103604592e-01 
  1.962829650240e-01 
  1.622130694412e-01 
  1.743856740060e-01 
  1.524883829880e-01 
  1.717804440358e-01 
  1.572424229044e-01 
  1.427044017730e-01 
  1.697356665183e-01 
  1.551976453870e-01 
  1.676908890009e-01 
  1.429701650258e-01 
  1.567410541465e-01 
  1.705119432673e-01 
  1.420146174026e-01 
  1.557855065233e-01 
  1.410590697793e-01 
  1.676281927783e-01 
  1.703583653923e-01 
  1.730885380063e-01 
  1.831285859186e-01 
  1.858587585327e-01 
  1.986289790590e-01 
  1.679728269612e-01 
  1.565386408977e-01 
  1.451044548341e-01 
  8.672186371775e-02 
  7.528767765419e-02 
  5.470900474249e-03 
  1.574563684830e-01 
  1.772823137145e-01 
  1.971082589460e-01 
  1.790851677602e-01 
  1.989111129918e-01 
  2.007139670375e-01 
  1.967235048535e-01 
  1.764693897132e-01 
  1.562152745728e-01 
  1.740597747278e-01 
  1.538056595875e-01 
  1.513960446021e-01 
  1.627052050458e-01 
  1.594640345034e-01 
  1.562228639610e-01 
  1.655718547335e-01 
  1.623306841911e-01 
  1.684385044212e-01 
  1.547427418700e-01 
  1.587028186816e-01 
  1.626628954932e-01 
  1.488104843787e-01 
  1.527705611903e-01 
  1.428782268874e-01 
  1.997146022762e-01 
  1.989626149181e-01 
  1.982106275600e-01 
  1.866299236408e-01 
  1.858779362827e-01 
  1.735452450054e-01 
  1.679804328283e-01 
  1.825978465598e-01 
  1.972152602914e-01 
  1.696764812931e-01 
  1.842938950246e-01 
  1.713725297579e-01 
  5.081157875813e-03 
  8.877990986720e-02 
  1.724786618586e-01 
  8.701569238695e-02 
  1.707144443783e-01 
  1.689502268981e-01 