# vtk DataFile Version 2
NuDG++ 2D simulation
ASCII
DATASET UNSTRUCTURED_GRID

POINTS 2244 double
 -1.656250060000e-01  -2.000000030000e-01  0.0
 -1.828125045000e-01  -1.772221997500e-01  0.0
 -2.000000030000e-01  -1.544443965000e-01  0.0
 -1.828125045000e-01  -2.000000030000e-01  0.0
 -2.000000030000e-01  -1.772221997500e-01  0.0
 -2.000000030000e-01  -2.000000030000e-01  0.0
 -6.428571790000e-02  -1.700000018000e-01  0.0
 -8.058035746000e-02  -1.850000024000e-01  0.0
 -9.687499702000e-02  -2.000000030000e-01  0.0
 -6.339285895000e-02  -1.850000024000e-01  0.0
 -7.968749851000e-02  -2.000000030000e-01  0.0
 -6.250000000000e-02  -2.000000030000e-01  0.0
 -2.000000030000e-01  -1.544443965000e-01  0.0
 -1.750000045000e-01  -1.379364989500e-01  0.0
 -1.500000060000e-01  -1.214286014000e-01  0.0
 -2.000000030000e-01  -1.316666491500e-01  0.0
 -1.750000045000e-01  -1.151587516000e-01  0.0
 -2.000000030000e-01  -1.088889018000e-01  0.0
 -1.500000060000e-01  -1.214286014000e-01  0.0
 -1.750000045000e-01  -1.379364989500e-01  0.0
 -2.000000030000e-01  -1.544443965000e-01  0.0
 -1.500000060000e-01  -1.457143016000e-01  0.0
 -1.750000045000e-01  -1.622221991500e-01  0.0
 -1.500000060000e-01  -1.700000018000e-01  0.0
 -1.500000060000e-01  -7.285714149000e-02  0.0
 -1.750000045000e-01  -9.087302164500e-02  0.0
 -2.000000030000e-01  -1.088889018000e-01  0.0
 -1.500000060000e-01  -9.714287144500e-02  0.0
 -1.750000045000e-01  -1.151587516000e-01  0.0
 -1.500000060000e-01  -1.214286014000e-01  0.0
  1.832975030000e+00  -4.625000060000e-02  0.0
  1.853987515000e+00  -1.231250018000e-01  0.0
  1.875000000000e+00  -2.000000030000e-01  0.0
  1.916487515000e+00  -7.187499851000e-02  0.0
  1.937500000000e+00  -1.487499997100e-01  0.0
  2.000000000000e+00  -9.749999642000e-02  0.0
 -1.500000060000e-01  -1.700000018000e-01  0.0
 -1.360000037000e-01  -1.525000036000e-01  0.0
 -1.220000014000e-01  -1.350000054000e-01  0.0
 -1.500000060000e-01  -1.457143016000e-01  0.0
 -1.360000037000e-01  -1.282143034000e-01  0.0
 -1.500000060000e-01  -1.214286014000e-01  0.0
  2.849999964000e-01  -2.333333530000e-02  0.0
  2.837499976000e-01  -8.166666795000e-02  0.0
  2.824999988000e-01  -1.400000006000e-01  0.0
  3.174999952000e-01  -4.666666780000e-02  0.0
  3.162499964000e-01  -1.050000004500e-01  0.0
  3.499999940000e-01  -7.000000030000e-02  0.0
 -1.071429029000e-01  -1.700000018000e-01  0.0
 -8.571431040000e-02  -1.700000018000e-01  0.0
 -6.428571790000e-02  -1.700000018000e-01  0.0
 -9.857145324000e-02  -1.525000036000e-01  0.0
 -7.714286074000e-02  -1.525000036000e-01  0.0
 -9.000000358000e-02  -1.350000054000e-01  0.0
 -1.312499940000e-01  -2.000000030000e-01  0.0
 -1.191964484500e-01  -1.850000024000e-01  0.0
 -1.071429029000e-01  -1.700000018000e-01  0.0
 -1.406250000000e-01  -1.850000024000e-01  0.0
 -1.285714544500e-01  -1.700000018000e-01  0.0
 -1.500000060000e-01  -1.700000018000e-01  0.0
 -1.220000014000e-01  -1.350000054000e-01  0.0
 -1.060000024900e-01  -1.350000054000e-01  0.0
 -9.000000358000e-02  -1.350000054000e-01  0.0
 -1.185000017500e-01  -1.175000034500e-01  0.0
 -1.025000028400e-01  -1.175000034500e-01  0.0
 -1.150000021000e-01  -1.000000015000e-01  0.0
 -9.000000358000e-02  -1.350000054000e-01  0.0
 -1.060000024900e-01  -1.350000054000e-01  0.0
 -1.220000014000e-01  -1.350000054000e-01  0.0
 -9.857145324000e-02  -1.525000036000e-01  0.0
 -1.145714521500e-01  -1.525000036000e-01  0.0
 -1.071429029000e-01  -1.700000018000e-01  0.0
 -7.778175920000e-02  -9.192386270000e-02  0.0
 -9.639088065000e-02  -9.596193210000e-02  0.0
 -1.150000021000e-01  -1.000000015000e-01  0.0
 -8.389088139000e-02  -1.134619340500e-01  0.0
 -1.025000028400e-01  -1.175000034500e-01  0.0
 -9.000000358000e-02  -1.350000054000e-01  0.0
 -1.220000014000e-01  -1.350000054000e-01  0.0
 -1.185000017500e-01  -1.175000034500e-01  0.0
 -1.150000021000e-01  -1.000000015000e-01  0.0
 -1.360000037000e-01  -1.282143034000e-01  0.0
 -1.325000040500e-01  -1.107143014500e-01  0.0
 -1.500000060000e-01  -1.214286014000e-01  0.0
 -7.778175920000e-02  -9.192386270000e-02  0.0
 -8.389088139000e-02  -1.134619340500e-01  0.0
 -9.000000358000e-02  -1.350000054000e-01  0.0
 -6.639088876500e-02  -1.022535823500e-01  0.0
 -7.250001095500e-02  -1.237916537000e-01  0.0
 -5.500001833000e-02  -1.125833020000e-01  0.0
 -1.071429029000e-01  -1.700000018000e-01  0.0
 -1.145714521500e-01  -1.525000036000e-01  0.0
 -1.220000014000e-01  -1.350000054000e-01  0.0
 -1.285714544500e-01  -1.700000018000e-01  0.0
 -1.360000037000e-01  -1.525000036000e-01  0.0
 -1.500000060000e-01  -1.700000018000e-01  0.0
  6.250000093000e-03  -2.000000030000e-01  0.0
  4.062500153650e-02  -2.000000030000e-01  0.0
  7.500000298000e-02  -2.000000030000e-01  0.0
  1.383928512150e-02  -1.850000024000e-01  0.0
  4.821428656500e-02  -1.850000024000e-01  0.0
  2.142857015000e-02  -1.700000018000e-01  0.0
 -1.500000060000e-01  -7.285714149000e-02  0.0
 -1.500000060000e-01  -9.714287144500e-02  0.0
 -1.500000060000e-01  -1.214286014000e-01  0.0
 -1.325000040500e-01  -8.642857149500e-02  0.0
 -1.325000040500e-01  -1.107143014500e-01  0.0
 -1.150000021000e-01  -1.000000015000e-01  0.0
 -2.000000030000e-01  -6.333333254000e-02  0.0
 -1.750000045000e-01  -6.809523701500e-02  0.0
 -1.500000060000e-01  -7.285714149000e-02  0.0
 -1.750000045000e-01  -4.380952660000e-02  0.0
 -1.500000060000e-01  -4.857143107500e-02  0.0
 -1.500000060000e-01  -2.428572066000e-02  0.0
 -2.000000030000e-01  -6.333333254000e-02  0.0
 -2.000000030000e-01  -8.611111717000e-02  0.0
 -2.000000030000e-01  -1.088889018000e-01  0.0
 -1.750000045000e-01  -6.809523701500e-02  0.0
 -1.750000045000e-01  -9.087302164500e-02  0.0
 -1.500000060000e-01  -7.285714149000e-02  0.0
 -2.000000030000e-01  -6.333333254000e-02  0.0
 -1.750000045000e-01  -4.380952660000e-02  0.0
 -1.500000060000e-01  -2.428572066000e-02  0.0
 -2.000000030000e-01  -4.055555630500e-02  0.0
 -1.750000045000e-01  -2.103175036500e-02  0.0
 -2.000000030000e-01  -1.777778007000e-02  0.0
 -1.500000060000e-01  -2.428572066000e-02  0.0
 -1.500000060000e-01  -4.857143107500e-02  0.0
 -1.500000060000e-01  -7.285714149000e-02  0.0
 -1.281259023000e-01  -2.896608505500e-02  0.0
 -1.281259023000e-01  -5.325179547000e-02  0.0
 -1.062517986000e-01  -3.364644945000e-02  0.0
 -1.099999994000e-01   1.996667010000e-08  0.0
 -1.300000027000e-01  -1.214285034666e-02  0.0
 -1.500000060000e-01  -2.428572066000e-02  0.0
 -1.081258990000e-01  -1.682321474166e-02  0.0
 -1.281259023000e-01  -2.896608505500e-02  0.0
 -1.062517986000e-01  -3.364644945000e-02  0.0
 -1.500000060000e-01  -2.428572066000e-02  0.0
 -1.500000060000e-01   0.000000000000e+00  0.0
 -1.500000060000e-01   2.428572066000e-02  0.0
 -1.750000045000e-01  -2.103175036500e-02  0.0
 -1.750000045000e-01   3.253970295000e-03  0.0
 -2.000000030000e-01  -1.777778007000e-02  0.0
 -1.500000060000e-01  -7.285714149000e-02  0.0
 -1.226314045700e-01  -6.892856210000e-02  0.0
 -9.526280314000e-02  -6.499998271000e-02  0.0
 -1.281259023000e-01  -5.325179547000e-02  0.0
 -1.007573008700e-01  -4.932321608000e-02  0.0
 -1.062517986000e-01  -3.364644945000e-02  0.0
  3.499999940000e-01   1.400000006000e-01  0.0
  4.021931737500e-01   1.224999986500e-01  0.0
  4.543863535000e-01   1.049999967000e-01  0.0
  4.187500029500e-01   1.749999970000e-01  0.0
  4.709431827000e-01   1.574999950500e-01  0.0
  4.875000119000e-01   2.099999934000e-01  0.0
 -7.101409137000e-02  -4.349999130000e-02  0.0
 -8.313844725500e-02  -5.424998700500e-02  0.0
 -9.526280314000e-02  -6.499998271000e-02  0.0
 -6.449843011500e-02  -5.250913650000e-02  0.0
 -7.662278600000e-02  -6.325913220500e-02  0.0
 -5.798276886000e-02  -6.151828170000e-02  0.0
 -9.526280314000e-02  -6.499998271000e-02  0.0
 -1.226314045700e-01  -6.892856210000e-02  0.0
 -1.500000060000e-01  -7.285714149000e-02  0.0
 -1.051314026200e-01  -8.249999210500e-02  0.0
 -1.325000040500e-01  -8.642857149500e-02  0.0
 -1.150000021000e-01  -1.000000015000e-01  0.0
 -6.181925908000e-02  -1.656441018000e-02  0.0
 -7.051259093000e-02  -1.954082492500e-02  0.0
 -7.920592278000e-02  -2.251723967000e-02  0.0
 -5.862244405000e-02  -2.428220026000e-02  0.0
 -6.731577590000e-02  -2.725861500500e-02  0.0
 -5.542562902000e-02  -3.199999034000e-02  0.0
 -7.920592278000e-02  -2.251723967000e-02  0.0
 -9.272886069000e-02  -2.808184456000e-02  0.0
 -1.062517986000e-01  -3.364644945000e-02  0.0
 -7.511000707500e-02  -3.300861548500e-02  0.0
 -8.863294498500e-02  -3.857322037500e-02  0.0
 -7.101409137000e-02  -4.349999130000e-02  0.0
 -7.101409137000e-02  -4.349999130000e-02  0.0
 -6.321986019500e-02  -3.774999082000e-02  0.0
 -5.542562902000e-02  -3.199999034000e-02  0.0
 -7.511000707500e-02  -3.300861548500e-02  0.0
 -6.731577590000e-02  -2.725861500500e-02  0.0
 -7.920592278000e-02  -2.251723967000e-02  0.0
 -7.920592278000e-02  -2.251723967000e-02  0.0
 -9.460296109000e-02  -1.125860985166e-02  0.0
 -1.099999994000e-01   1.996667010000e-08  0.0
 -9.272886069000e-02  -2.808184456000e-02  0.0
 -1.081258990000e-01  -1.682321474166e-02  0.0
 -1.062517986000e-01  -3.364644945000e-02  0.0
 -7.778175920000e-02  -9.192386270000e-02  0.0
 -6.788226403000e-02  -7.672107220000e-02  0.0
 -5.798276886000e-02  -6.151828170000e-02  0.0
 -8.652228117000e-02  -7.846192270500e-02  0.0
 -7.662278600000e-02  -6.325913220500e-02  0.0
 -9.526280314000e-02  -6.499998271000e-02  0.0
 -7.101409137000e-02  -4.349999130000e-02  0.0
 -8.863294498500e-02  -3.857322037500e-02  0.0
 -1.062517986000e-01  -3.364644945000e-02  0.0
 -8.313844725500e-02  -5.424998700500e-02  0.0
 -1.007573008700e-01  -4.932321608000e-02  0.0
 -9.526280314000e-02  -6.499998271000e-02  0.0
 -7.778175920000e-02  -9.192386270000e-02  0.0
 -8.652228117000e-02  -7.846192270500e-02  0.0
 -9.526280314000e-02  -6.499998271000e-02  0.0
 -9.639088065000e-02  -9.596193210000e-02  0.0
 -1.051314026200e-01  -8.249999210500e-02  0.0
 -1.150000021000e-01  -1.000000015000e-01  0.0
[...]
POINT_DATA 2244
SCALARS field1 double 1
LOOKUP_TABLE default
  2.026047122571e-03 
  1.005756650374e-02 
  1.808908588492e-02 
  1.150294409908e-03 
  9.181813791082e-03 
  2.745416972453e-04 
  4.170775599669e-02 
  2.163123696289e-02 
  1.554717929099e-03 
  2.130587214000e-02 
  1.229353106205e-03 
  9.039882833105e-04 
  1.755720470463e-02 
  2.247947965022e-02 
  2.740175459580e-02 
  2.430128100066e-02 
  2.922355594625e-02 
  3.104535729669e-02 
  2.738872030684e-02 
  2.209490018958e-02 
  1.680108007231e-02 
  2.478933692151e-02 
  1.949551680424e-02 
  2.218995353618e-02 
  3.623417440652e-02 
  3.373723898518e-02 
  3.124030356383e-02 
  3.220074250532e-02 
  2.970380708397e-02 
  2.816731060411e-02 
  3.831831515513e-02 
  3.309996098659e-02 
  2.788160681805e-02 
  3.829190600651e-02 
  3.307355183796e-02 
  3.826549685788e-02 
  2.342988849493e-02 
  2.771317396064e-02 
  3.199645942636e-02 
  2.574762741553e-02 
  3.003091288124e-02 
  2.806536633613e-02 
  3.287455784279e-02 
  3.486343280992e-02 
  3.685230777705e-02 
  3.341498879368e-02 
  3.540386376080e-02 
  3.395541974456e-02 
  3.361226303906e-02 
  3.622983635074e-02 
  3.884740966241e-02 
  3.278124571432e-02 
  3.539881902600e-02 
  3.195022838958e-02 
  3.165330255747e-03 
  1.949517252356e-02 
  3.582501479137e-02 
  1.364011078918e-02 
  2.996995305699e-02 
  2.411489132262e-02 
  3.034945166145e-02 
  3.090789955664e-02 
  3.146634745184e-02 
  3.122247008685e-02 
  3.178091798204e-02 
  3.209548851225e-02 
  3.130046864830e-02 
  3.082067574411e-02 
  3.034088283992e-02 
  3.255106739730e-02 
  3.207127449311e-02 
  3.380166614630e-02 
  3.615952304779e-02 
  3.399890522941e-02 
  3.183828741103e-02 
  3.414259083631e-02 
  3.198197301793e-02 
  3.212565862484e-02 
  3.088046629670e-02 
  3.163856259587e-02 
  3.239665889504e-02 
  3.005004441458e-02 
  3.080814071375e-02 
  2.921962253247e-02 
  3.617605882474e-02 
  3.458823305020e-02 
  3.300040727566e-02 
  3.702412176781e-02 
  3.543629599327e-02 
  3.787218471089e-02 
  3.432530725871e-02 
  3.257933802248e-02 
  3.083336878624e-02 
  2.936370063963e-02 
  2.761773140339e-02 
  2.440209402054e-02 
  1.125829660376e-03 
  1.710890441819e-03 
  2.295951223261e-03 
  2.459638319070e-02 
  2.518144397215e-02 
  4.806693672103e-02 
  3.543476791725e-02 
  3.229130688169e-02 
  2.914784584614e-02 
  3.400623912371e-02 
  3.086277808815e-02 
  3.257771033017e-02 
  4.112553351404e-02 
  3.867237605292e-02 
  3.621921859180e-02 
  4.029824997448e-02 
  3.784509251336e-02 
  3.947096643493e-02 
  4.049950523943e-02 
  3.598263621174e-02 
  3.146576718406e-02 
  3.859109564028e-02 
  3.407422661260e-02 
  3.668268604114e-02 
  4.069490783782e-02 
  4.038599873329e-02 
  4.007708962876e-02 
  4.278262419791e-02 
  4.247371509338e-02 
  4.487034055800e-02 
  3.834346025858e-02 
  3.701484840083e-02 
  3.568623654307e-02 
  3.389760702035e-02 
  3.256899516260e-02 
  2.945175378212e-02 
  2.719465348018e-02 
  3.256461011650e-02 
  3.793456675282e-02 
  2.843380807856e-02 
  3.380376471488e-02 
  2.967296267694e-02 
  3.911318161509e-02 
  3.913850177770e-02 
  3.916382194030e-02 
  4.245647123788e-02 
  4.248179140049e-02 
  4.579976086068e-02 
  3.523421971857e-02 
  3.376694768638e-02 
  3.229967565420e-02 
  3.242208852699e-02 
  3.095481649481e-02 
  2.960995733542e-02 
  4.105756611967e-02 
  3.993173263434e-02 
  3.880589914901e-02 
  3.197151538799e-02 
  3.084568190266e-02 
  2.288546465631e-02 
  2.776646157893e-02 
  3.044305284282e-02 
  3.311964410671e-02 
  3.175946220315e-02 
  3.443605346705e-02 
  3.575246282738e-02 
  3.258302069692e-02 
  3.375998169330e-02 
  3.493694268967e-02 
  3.260470954343e-02 
  3.378167053980e-02 
  3.262639838993e-02 
  1.082968048574e-02 
  1.681832296822e-02 
  2.280696545071e-02 
  1.465512618978e-02 
  2.064376867227e-02 
  1.848057189383e-02 
  2.254818631892e-02 
  2.585643310823e-02 
  2.916467989754e-02 
  2.505273755381e-02 
  2.836098434312e-02 
  2.755728878871e-02 
  2.756804597747e-02 
  2.320994017218e-02 
  1.885183436690e-02 
  2.504935935702e-02 
  2.069125355174e-02 
  2.253067273657e-02 
  2.239596335874e-02 
  2.478627337888e-02 
  2.717658339902e-02 
  2.586079464163e-02 
  2.825110466177e-02 
  2.932562592452e-02 
  3.591930259929e-02 
  3.581766537433e-02 
  3.571602814937e-02 
  3.456173365460e-02 
  3.446009642965e-02 
  3.320416470992e-02 
  2.771911533172e-02 
  2.840020707663e-02 
  2.908129882154e-02 
  3.025467661866e-02 
  3.093576836357e-02 
  3.279023790560e-02 
  3.606696666334e-02 
  3.460841368893e-02 
  3.314986071451e-02 
  3.423261767757e-02 
  3.277406470315e-02 
  3.239826869179e-02 
  2.261810669844e-02 
  1.670485033854e-02 
  1.079159397864e-02 
  2.101917681259e-02 
  1.510592045269e-02 
  1.942024692674e-02 
  3.733553693216e-02 
  3.522316245821e-02 
  3.311078798425e-02 
  3.795230280971e-02 
  3.583992833576e-02 
  3.856906868726e-02 
  3.600284221661e-02 
  3.622066715390e-02 
  3.643849209118e-02 
  3.470436053945e-02 
  3.492218547673e-02 
  3.340587886228e-02 
  3.876062887177e-02 
  4.066414450960e-02 
  4.256766014743e-02 
  3.928212548690e-02 
  4.118564112473e-02 
  3.980362210203e-02 
  3.765522827951e-02 
  3.709807440957e-02 
  3.654092053962e-02 
  3.828765119895e-02 
  3.773049732900e-02 
  3.892007411838e-02 
  3.560309922163e-02 
  3.916788964129e-02 
  4.273268006095e-02 
  3.568820208498e-02 
  3.925299250464e-02 
  3.577330494832e-02 
  4.279580027373e-02 
  3.920392452355e-02 
  3.561204877337e-02 
  3.999575268301e-02 
  3.640387693283e-02 
  3.719570509230e-02 
  4.829896222604e-02 
  4.603510100313e-02 
  4.377123978022e-02 
  4.241245677436e-02 
  4.014859555144e-02 
  3.652595132267e-02 
  4.608344668147e-02 
  4.075757081206e-02 
  3.543169494266e-02 
  4.487979192623e-02 
  3.955391605683e-02 
  4.367613717100e-02 
  3.619955738745e-02 
  3.707895506816e-02 
  3.795835274886e-02 
  4.213105394579e-02 
  4.301045162650e-02 
  4.806255050413e-02 
  3.787662471488e-02 
  3.867996519892e-02 
  3.948330568297e-02 
  4.036595928146e-02 
  4.116929976550e-02 
  4.285529384803e-02 
  4.994503980107e-02 
  4.918864963889e-02 
  4.843225947672e-02 
  4.419232497315e-02 
  4.343593481097e-02 
  3.843961014522e-02 
  5.346092928887e-04 
  3.109142664893e-02 
  6.164824400497e-02 
  9.338628867111e-04 
  3.149068024275e-02 
  1.333116480534e-03 
  4.923490997551e-02 
  5.442741166044e-02 
  5.961991334538e-02 
  5.216931081559e-02 
  5.736181250053e-02 
  5.510371165567e-02 
  5.968904498817e-02 
  5.439821714594e-02 
  4.910738930371e-02 
  5.474684736214e-02 
  4.945601951991e-02 
  4.980464973611e-02 
  5.494923428771e-02 
  5.767102860490e-02 
  6.039282292209e-02 
  2.842397772077e-02 
  3.114577203796e-02 
  1.898721153830e-03 
  4.887990584787e-02 
  5.221067507398e-02 
  5.554144430009e-02 
  4.654495178194e-02 
  4.987572100805e-02 
  4.420999771601e-02 
  4.863505598602e-02 
  5.412478094975e-02 
  5.961450591347e-02 
  4.911511828036e-02 
  5.460484324409e-02 
  4.959518057470e-02 
  4.943380519751e-02 
  4.412848543231e-02 
  3.882316566710e-02 
  4.451964999705e-02 
  3.921433023184e-02 
  3.960549479658e-02 
  4.246817337320e-02 
  4.264597459736e-02 
  4.282377582152e-02 
  4.082082119641e-02 
  4.099862242057e-02 
  3.917346901962e-02 
  4.609811820027e-02 
  4.522620867092e-02 
  4.435429914158e-02 
  5.077723929251e-02 
  4.990532976317e-02 
  5.545636038475e-02 
 -2.770016565105e-04 
  9.523534085397e-03 
  1.932406982730e-02 
  4.257368048708e-04 
  1.022627254678e-02 
  1.128475266252e-03 
  1.921493068564e-02 
  2.323563387944e-02 
  2.725633707324e-02 
  2.664624266274e-02 
  3.066694585654e-02 
  3.407755463984e-02 
  4.313853573571e-02 
  2.441564814198e-02 
  5.692760548248e-03 
  2.165999073453e-02 
  2.937103140801e-03 
  1.814457333535e-04 
 -6.074031599134e-04 
  1.675753245635e-03 
  3.958909651184e-03 
  4.968186092565e-03 
  7.251342498113e-03 
  1.054377534504e-02 
  1.428729764273e-04 
 -3.425507968961e-04 
 -8.279745702195e-04 
  9.048608800656e-03 
  8.563185027332e-03 
  1.795434462488e-02 
  3.790761293968e-02 
  2.078449609103e-02 
  3.661379242379e-03 
  3.170860034901e-02 
  1.458548350036e-02 
  2.550958775834e-02 
  1.921882319896e-02 
  2.703783389035e-02 
  3.485684458173e-02 
  1.036991808794e-02 
  1.818892877932e-02 
  1.521012976913e-03 
 -1.002994746385e-03 
  4.802898017857e-03 
  1.060879078210e-02 
  8.469007594525e-03 
  1.427490035877e-02 
  1.794100993544e-02 
  8.439671399804e-04 
  9.252783738372e-04 
  1.006589607694e-03 
  2.846858517349e-02 
  2.854989640735e-02 
  5.609320320701e-02 
  1.048070943833e-03 
  3.135838039728e-02 
  6.166868985073e-02 
  9.449364756505e-04 
  3.125524592910e-02 
  8.418020074679e-04 
  4.642453033221e-02 
  2.683660426000e-02 
  7.248678187786e-03 
  4.278104422670e-02 
  2.319311815448e-02 
  3.913755812118e-02 
  2.888084505830e-04 
  1.830747742294e-02 
  3.632614639530e-02 
  9.366591384145e-04 
  1.895532811077e-02 
  1.584509826246e-03 
  2.020943911355e-03 
  2.409158692446e-02 
  4.616222993757e-02 
  2.870108296442e-02 
  5.077172597753e-02 
  5.538122201749e-02 
  4.326583500736e-02 
  2.387571222453e-02 
  4.485589441696e-03 
  4.354158734548e-02 
  2.415146456265e-02 
  4.381733968361e-02 
  3.731880352421e-02 
  1.948390782913e-02 
  1.649012134053e-03 
  1.943139936572e-02 
  1.596503670639e-03 
  1.543995207224e-03 
  2.615821373284e-03 
  1.912221667404e-02 
  3.562861197480e-02 
  2.421215948312e-02 
  4.071855478388e-02 
  4.580849759295e-02 
  3.481977295694e-02 
  3.524418402666e-02 
  3.566859509638e-02 
  4.033964854392e-02 
  4.076405961364e-02 
  4.585952413090e-02 
  4.122740168147e-02 
  2.294112715707e-02 
  4.654852632673e-03 
  4.212299130400e-02 
  2.383671677960e-02 
  4.301858092653e-02 
  4.934678814235e-02 
  4.440124968451e-02 
  3.945571122668e-02 
  4.410474226395e-02 
  3.915920380612e-02 
  3.886269638556e-02 
  3.414224607728e-02 
  3.067020962630e-02 
  2.719817317531e-02 
  3.499338543445e-02 
  3.152134898347e-02 
  3.584452479163e-02 
  7.435028298636e-04 
  1.731996107601e-03 
  2.720489385339e-03 
  2.193689823951e-02 
  2.292539151725e-02 
  4.313029364916e-02 
  3.523875559559e-03 
  1.620351998318e-03 
 -2.831715629236e-04 
  1.592814320719e-03 
 -3.107092405227e-04 
 -3.382469181218e-04 
  3.734560457306e-02 
  3.769060639229e-02 
  3.803560821152e-02 
  3.325594925725e-02 
  3.360095107648e-02 
  2.916629394144e-02 
  3.977306874841e-02 
  4.220545691670e-02 
  4.463784508499e-02 
  4.248178928333e-02 
  4.491417745162e-02 
  4.519050981825e-02 
  4.456605095676e-02 
  4.197236173134e-02 
  3.937867250592e-02 
  4.264250996097e-02 
  4.004882073555e-02 
  4.071896896518e-02 
  3.855351385439e-02 
  4.178068330979e-02 
  4.500785276519e-02 
  3.868766930105e-02 
  4.191483875645e-02 
  3.882182474771e-02 
  4.088665691978e-02 
  4.016072595548e-02 
  3.943479499117e-02 
  3.629398511117e-02 
  3.556805414687e-02 
  3.170131330256e-02 
  1.515172106300e-02 
  1.227327199909e-02 
  9.394822935183e-03 
  3.265637810747e-02 
  2.977792904357e-02 
  5.016103515195e-02 
  3.771132838954e-02 
  3.252203022359e-02 
  2.733273205764e-02 
  3.360176961095e-02 
  2.841247144500e-02 
  2.949221083235e-02 
  3.778972341386e-02 
  3.783287282748e-02 
  3.787602224109e-02 
  3.228089646076e-02 
  3.232404587438e-02 
  2.677206950766e-02 
  2.207849557884e-02 
  2.564974725246e-02 
  2.922099892608e-02 
  2.472747899712e-02 
  2.829873067074e-02 
  2.737646241540e-02 
  2.982683206384e-02 
  2.582066606335e-02 
  2.181450006285e-02 
  2.498820933644e-02 
  2.098204333595e-02 
  2.014958660905e-02 
  2.887220979100e-02 
  2.910730848873e-02 
  2.934240718646e-02 
  3.026216831767e-02 
  3.049726701540e-02 
  3.165212684435e-02 
  2.926506590452e-02 
  2.909643342080e-02 
  2.892780093707e-02 
  2.571255009160e-02 
  2.554391760788e-02 
  2.216003427869e-02 
  3.622478540385e-02 
  3.403050588549e-02 
  3.183622636713e-02 
  3.673205779904e-02 
  3.453777828068e-02 
  3.723933019423e-02 
  2.940433166289e-02 
  3.044772522134e-02 
  3.149111877979e-02 
  3.310740813228e-02 
  3.415080169073e-02 
  3.681048460167e-02 
  2.195828215719e-02 
  2.064305391985e-02 
  1.932782568251e-02 
  1.631806990479e-02 
  1.500284166745e-02 
  1.067785765239e-02 
  2.197710183268e-02 
  2.470560598162e-02 
  2.743411013055e-02 
  2.078724256068e-02 
  2.351574670961e-02 
  1.959738328868e-02 
  2.726896492960e-02 
  2.481167671193e-02 
  2.235438849425e-02 
  2.347394548919e-02 
  2.101665727151e-02 
  1.967892604877e-02 
  3.643447263961e-02 
  3.410125830802e-02 
  3.176804397643e-02 
  3.526639627659e-02 
  3.293318194500e-02 
  3.409831991357e-02 
  3.104932099792e-02 
  2.983668227704e-02 
  2.862404355617e-02 
  2.421685501418e-02 
  2.300421629331e-02 
  1.738438903045e-02 
  3.144756454678e-02 
  3.493991137528e-02 
  3.843225820377e-02 
  3.026558982550e-02 
  3.375793665400e-02 
  2.908361510423e-02 
  1.671907341817e-02 
  2.062543640081e-02 
  2.453179938345e-02 
  8.849568107233e-03 
  1.275593108987e-02 
  9.800627962914e-04 
  2.426694946358e-02 
  2.035780739380e-02 
  1.644866532403e-02 
  2.664442354073e-02 
  2.273528147096e-02 
  2.902189761788e-02 
  4.115876978954e-02 
  2.223808699260e-02 
  3.317404195649e-03 
  2.112047496659e-02 
  2.199792169644e-03 
  1.082180143640e-03 
  1.061562034325e-02 
  7.159849937756e-03 
  3.704079532259e-03 
  2.949525889300e-02 
  2.603948848750e-02 
  4.837489744274e-02 
  3.023708982393e-02 
  3.160853056427e-02 
  3.297997130461e-02 
  2.770126360543e-02 
  2.907270434577e-02 
  2.516543738692e-02 
  4.364323512022e-02 
  2.276239095028e-02 
  1.881546780347e-03 
  2.617970130597e-02 
  5.298857136040e-03 
  8.716167491733e-03 
  3.348222086465e-02 
  3.492463672703e-02 
  3.636705258941e-02 
  3.313393952196e-02 
  3.457635538434e-02 
  3.278565817927e-02 
  3.633724614822e-02 
  3.517243348094e-02 
  3.400762081365e-02 
  3.428685571235e-02 
  3.312204304506e-02 
  3.223646527647e-02 
  3.042135297987e-02 
  3.146044177073e-02 
  3.249953056159e-02 
  3.335750746541e-02 
  3.439659625627e-02 
  3.629366195095e-02 
  3.215236788852e-02 
  3.166115152927e-02 
  3.116993517003e-02 
  3.295667174123e-02 
  3.246545538199e-02 
  3.376097559395e-02 
  3.734679094447e-02 
  3.516907983843e-02 
  3.299136873239e-02 
  3.845899906794e-02 
  3.628128796190e-02 
  3.957120719141e-02 
  3.127158258774e-02 
  3.359469980145e-02 
  3.591781701515e-02 
  2.853262355775e-02 
  3.085574077146e-02 
  2.579366452776e-02 
  3.630477573038e-02 
  3.743607541298e-02 
  3.856737509558e-02 
  3.495556058304e-02 
  3.608686026564e-02 
  3.360634543569e-02 
  3.403099535072e-02 
  3.307530958258e-02 
  3.211962381445e-02 
  3.260322125512e-02 
  3.164753548699e-02 
  3.117544715952e-02 
  3.703928202257e-02 
  3.560441314792e-02 
  3.416954427328e-02 
  3.388171311210e-02 
  3.244684423745e-02 
  3.072414420163e-02 
  3.909573988640e-02 
  3.936265783314e-02 
  3.962957577988e-02 
  2.291155372985e-02 
  2.317847167659e-02 
  6.727367573306e-03 
  3.160267910673e-02 
  3.067611147767e-02 
  2.974954384862e-02 
  3.450401805792e-02 
  3.357745042886e-02 
  3.740535700911e-02 
  2.757471146286e-02 
  3.402378070127e-02 
  4.047284993969e-02 
  3.247744418103e-02 
  3.892651341945e-02 
  3.738017689920e-02 
  3.871305670490e-03 
  1.810426458311e-03 
 -2.504527538675e-04 
  7.324631421804e-03 
  5.263752209626e-03 
  1.077795717312e-02 
  3.516315240473e-03 
  1.557616352656e-03 
 -4.010825351600e-04 
  1.695697530199e-03 
 -2.630013576174e-04 
 -1.249201800748e-04 
  1.090205428734e-02 
  5.637654958315e-03 
  3.732556292932e-04 
  1.527567335175e-02 
  1.001127402272e-02 
  1.964929241616e-02 
  3.108834045206e-02 
  2.553443135213e-02 
  1.998052225221e-02 
  1.550219857144e-02 
  9.948289471511e-03 
 -8.394330918339e-05 
  3.193415648931e-02 
  3.488495928341e-02 
  3.783576207751e-02 
  3.094553977305e-02 
  3.389634256715e-02 
  2.995692305679e-02 
  3.157048426220e-02 
  3.089728632909e-02 
  3.022408839599e-02 
  2.586966925926e-02 
  2.519647132616e-02 
  2.016885425632e-02 
  3.232731677131e-04 
  5.632352034926e-03 
  1.094143090214e-02 
  5.742818944192e-05 
  5.366507056655e-03 
 -2.084167888293e-04 
  2.198270627504e-02 
  1.642035383292e-02 
  1.085800139081e-02 
  2.092764804819e-02 
  1.536529560608e-02 
  1.987258982135e-02 
 -1.522871421593e-04 
  1.723720692056e-04 
  4.970312805706e-04 
  1.554917951885e-02 
  1.587383873021e-02 
  3.125064617986e-02 
  4.609972438798e-02 
  2.542927167664e-02 
  4.758818965301e-03 
  4.303451073034e-02 
  2.236405801901e-02 
  3.996929707271e-02 
  3.802825575350e-02 
  3.481352698173e-02 
  3.159879820997e-02 
  3.681283160079e-02 
  3.359810282902e-02 
  3.559740744808e-02 
  1.749382003834e-02 
  9.914755652074e-03 
  2.335691265809e-03 
  1.973411516395e-02 
  1.215505077768e-02 
  2.197441028955e-02 
  4.853298076348e-02 
  2.448748933792e-02 
  4.419979123610e-04 
  2.509141356479e-02 
  1.045922139232e-03 
  1.649846366103e-03 
  4.716389395292e-02 
  2.351110022923e-02 
 -1.416934944553e-04 
  2.401150665750e-02 
  3.587129338153e-04 
  8.591193620859e-04 
  4.096013445876e-02 
  2.221037183970e-02 
  3.460609220626e-03 
  3.788760680220e-02 
  1.913784418313e-02 
  3.481507914563e-02 
  3.124221384401e-02 
  1.579786914114e-02 
  3.535244382619e-04 
  3.872052274032e-02 
  2.327617803745e-02 
  4.619883163663e-02 
  2.946270677424e-02 
  3.410281769717e-02 
  3.874292862010e-02 
  3.296528456387e-02 
  3.760539548680e-02 
  3.646786235350e-02 
  5.803072108111e-02 
  2.940223260884e-02 
  7.737441365641e-04 
  2.990362714753e-02 
  1.275138675263e-03 
  1.776533213961e-03 
  3.759572125381e-02 
  4.189377924479e-02 
  4.619183723577e-02 
  4.034715878168e-02 
  4.464521677266e-02 
  4.309859630954e-02 
  4.583618926055e-02 
  4.188510944808e-02 
  3.793402963561e-02 
  3.880384253768e-02 
  3.485276272521e-02 
  3.177149581480e-02 
  3.780276209186e-02 
  3.797560925571e-02 
  3.814845641957e-02 
  3.773340173830e-02 
  3.790624890215e-02 
  3.766404138474e-02 
  3.851695186475e-02 
  3.629188432643e-02 
  3.406681678810e-02 
  3.823598912924e-02 
  3.601092159091e-02 
  3.795502639372e-02 
  3.843956925177e-02 
  3.718552747608e-02 
  3.593148570039e-02 
  4.062635446270e-02 
  3.937231268701e-02 
  4.281313967363e-02 
  4.334727599835e-02 
  4.606785419127e-02 
  4.878843238419e-02 
  4.079025274132e-02 
  4.351083093424e-02 
  3.823322948429e-02 
  4.296603043092e-02 
  4.480494952651e-02 
  4.664386862209e-02 
  4.938296532688e-02 
  5.122188442247e-02 
  5.579990022285e-02 
  3.752885725032e-02 
  4.016074754979e-02 
  4.279263784927e-02 
  3.675824428365e-02 
  3.939013458313e-02 
  3.598763131699e-02 
  5.635199332947e-02 
  5.751787853836e-02 
  5.868376374724e-02 
  5.286178573138e-02 
  5.402767094026e-02 
  4.937157813328e-02 
  5.623398788698e-02 
  5.190798003455e-02 
  4.758197218211e-02 
  2.939696531850e-02 
  2.507095746607e-02 
  2.559942750019e-03 
  3.927446425789e-02 
  4.394485760403e-02 
  4.861525095017e-02 
  4.446348497960e-02 
  4.913387832574e-02 
  4.965250570132e-02 
  4.862115806326e-02 
  4.367552174972e-02 
  3.872988543618e-02 
  4.326848631637e-02 
  3.832285000283e-02 
  3.791581456947e-02 
  4.345433233160e-02 
  4.131601567343e-02 
  3.917769901526e-02 
  4.163577280195e-02 
  3.949745614379e-02 
  3.981721327231e-02 
  3.794504278303e-02 
  4.112081053037e-02 
  4.429657827772e-02 
  3.812668018955e-02 
  4.130244793689e-02 
  3.830831759607e-02 
  4.930863958858e-02 
  4.922541423461e-02 
  4.914218888063e-02 
  5.399176166235e-02 
  5.390853630837e-02 
  5.867488373611e-02 
  5.591852795311e-02 
  5.255760035796e-02 
  4.919667276282e-02 
  4.940957504546e-02 
  4.604864745031e-02 
  4.290062213781e-02 
  3.231925549714e-03 
  3.096220472020e-02 
  5.869248389068e-02 
  3.014806210784e-02 
  5.787834127833e-02 
  5.706419866597e-02 