# vtk DataFile Version 2
NuDG++ 2D simulation
ASCII
DATASET UNSTRUCTURED_GRID

POINTS 2244 double
 -1.656250060000e-01  -2.000000030000e-01  0.0
 -1.828125045000e-01  -1.772221997500e-01  0.0
 -2.000000030000e-01  -1.544443965000e-01  0.0
 -1.828125045000e-01  -2.000000030000e-01  0.0
 -2.000000030000e-01  -1.772221997500e-01  0.0
 -2.000000030000e-01  -2.000000030000e-01  0.0
 -6.428571790000e-02  -1.700000018000e-01  0.0
 -8.058035746000e-02  -1.850000024000e-01  0.0
 -9.687499702000e-02  -2.000000030000e-01  0.0
 -6.339285895000e-02  -1.850000024000e-01  0.0
 -7.968749851000e-02  -2.000000030000e-01  0.0
 -6.250000000000e-02  -2.000000030000e-01  0.0
 -2.000000030000e-01  -1.544443965000e-01  0.0
 -1.750000045000e-01  -1.379364989500e-01  0.0
 -1.500000060000e-01  -1.214286014000e-01  0.0
 -2.000000030000e-01  -1.316666491500e-01  0.0
 -1.750000045000e-01  -1.151587516000e-01  0.0
 -2.000000030000e-01  -1.088889018000e-01  0.0
 -1.500000060000e-01  -1.214286014000e-01  0.0
 -1.750000045000e-01  -1.379364989500e-01  0.0
 -2.000000030000e-01  -1.544443965000e-01  0.0
 -1.500000060000e-01  -1.457143016000e-01  0.0
 -1.750000045000e-01  -1.622221991500e-01  0.0
 -1.500000060000e-01  -1.700000018000e-01  0.0
 -1.500000060000e-01  -7.285714149000e-02  0.0
 -1.750000045000e-01  -9.087302164500e-02  0.0
 -2.000000030000e-01  -1.088889018000e-01  0.0
 -1.500000060000e-01  -9.714287144500e-02  0.0
 -1.750000045000e-01  -1.151587516000e-01  0.0
 -1.500000060000e-01  -1.214286014000e-01  0.0
  1.832975030000e+00  -4.625000060000e-02  0.0
  1.853987515000e+00  -1.231250018000e-01  0.0
  1.875000000000e+00  -2.000000030000e-01  0.0
  1.916487515000e+00  -7.187499851000e-02  0.0
  1.937500000000e+00  -1.487499997100e-01  0.0
  2.000000000000e+00  -9.749999642000e-02  0.0
 -1.500000060000e-01  -1.700000018000e-01  0.0
 -1.360000037000e-01  -1.525000036000e-01  0.0
 -1.220000014000e-01  -1.350000054000e-01  0.0
 -1.500000060000e-01  -1.457143016000e-01  0.0
 -1.360000037000e-01  -1.282143034000e-01  0.0
 -1.500000060000e-01  -1.214286014000e-01  0.0
  2.849999964000e-01  -2.333333530000e-02  0.0
  2.837499976000e-01  -8.166666795000e-02  0.0
  2.824999988000e-01  -1.400000006000e-01  0.0
  3.174999952000e-01  -4.666666780000e-02  0.0
  3.162499964000e-01  -1.050000004500e-01  0.0
  3.499999940000e-01  -7.000000030000e-02  0.0
 -1.071429029000e-01  -1.700000018000e-01  0.0
 -8.571431040000e-02  -1.700000018000e-01  0.0
 -6.428571790000e-02  -1.700000018000e-01  0.0
 -9.857145324000e-02  -1.525000036000e-01  0.0
 -7.714286074000e-02  -1.525000036000e-01  0.0
 -9.000000358000e-02  -1.350000054000e-01  0.0
 -1.312499940000e-01  -2.000000030000e-01  0.0
 -1.191964484500e-01  -1.850000024000e-01  0.0
 -1.071429029000e-01  -1.700000018000e-01  0.0
 -1.406250000000e-01  -1.850000024000e-01  0.0
 -1.285714544500e-01  -1.700000018000e-01  0.0
 -1.500000060000e-01  -1.700000018000e-01  0.0
 -1.220000014000e-01  -1.350000054000e-01  0.0
 -1.060000024900e-01  -1.350000054000e-01  0.0
 -9.000000358000e-02  -1.350000054000e-01  0.0
 -1.185000017500e-01  -1.175000034500e-01  0.0
 -1.025000028400e-01  -1.175000034500e-01  0.0
 -1.150000021000e-01  -1.000000015000e-01  0.0
 -9.000000358000e-02  -1.350000054000e-01  0.0
 -1.060000024900e-01  -1.350000054000e-01  0.0
 -1.220000014000e-01  -1.350000054000e-01  0.0
 -9.857145324000e-02  -1.525000036000e-01  0.0
 -1.145714521500e-01  -1.525000036000e-01  0.0
 -1.071429029000e-01  -1.700000018000e-01  0.0
 -7.778175920000e-02  -9.192386270000e-02  0.0
 -9.639088065000e-02  -9.596193210000e-02  0.0
 -1.150000021000e-01  -1.000000015000e-01  0.0
 -8.389088139000e-02  -1.134619340500e-01  0.0
 -1.025000028400e-01  -1.175000034500e-01  0.0
 -9.000000358000e-02  -1.350000054000e-01  0.0
 -1.220000014000e-01  -1.350000054000e-01  0.0
 -1.185000017500e-01  -1.175000034500e-01  0.0
 -1.150000021000e-01  -1.000000015000e-01  0.0
 -1.360000037000e-01  -1.282143034000e-01  0.0
 -1.325000040500e-01  -1.107143014500e-01  0.0
 -1.500000060000e-01  -1.214286014000e-01  0.0
 -7.778175920000e-02  -9.192386270000e-02  0.0
 -8.389088139000e-02  -1.134619340500e-01  0.0
 -9.000000358000e-02  -1.350000054000e-01  0.0
 -6.639088876500e-02  -1.022535823500e-01  0.0
 -7.250001095500e-02  -1.237916537000e-01  0.0
 -5.500001833000e-02  -1.125833020000e-01  0.0
 -1.071429029000e-01  -1.700000018000e-01  0.0
 -1.145714521500e-01  -1.525000036000e-01  0.0
 -1.220000014000e-01  -1.350000054000e-01  0.0
 -1.285714544500e-01  -1.700000018000e-01  0.0
 -1.360000037000e-01  -1.525000036000e-01  0.0
 -1.500000060000e-01  -1.700000018000e-01  0.0
  6.250000093000e-03  -2.000000030000e-01  0.0
  4.062500153650e-02  -2.000000030000e-01  0.0
  7.500000298000e-02  -2.000000030000e-01  0.0
  1.383928512150e-02  -1.850000024000e-01  0.0
  4.821428656500e-02  -1.850000024000e-01  0.0
  2.142857015000e-02  -1.700000018000e-01  0.0
 -1.500000060000e-01  -7.285714149000e-02  0.0
 -1.500000060000e-01  -9.714287144500e-02  0.0
 -1.500000060000e-01  -1.214286014000e-01  0.0
 -1.325000040500e-01  -8.642857149500e-02  0.0
 -1.325000040500e-01  -1.107143014500e-01  0.0
 -1.150000021000e-01  -1.000000015000e-01  0.0
 -2.000000030000e-01  -6.333333254000e-02  0.0
 -1.750000045000e-01  -6.809523701500e-02  0.0
 -1.500000060000e-01  -7.285714149000e-02  0.0
 -1.750000045000e-01  -4.380952660000e-02  0.0
 -1.500000060000e-01  -4.857143107500e-02  0.0
 -1.500000060000e-01  -2.428572066000e-02  0.0
 -2.000000030000e-01  -6.333333254000e-02  0.0
 -2.000000030000e-01  -8.611111717000e-02  0.0
 -2.000000030000e-01  -1.088889018000e-01  0.0
 -1.750000045000e-01  -6.809523701500e-02  0.0
 -1.750000045000e-01  -9.087302164500e-02  0.0
 -1.500000060000e-01  -7.285714149000e-02  0.0
 -2.000000030000e-01  -6.333333254000e-02  0.0
 -1.750000045000e-01  -4.380952660000e-02  0.0
 -1.500000060000e-01  -2.428572066000e-02  0.0
 -2.000000030000e-01  -4.055555630500e-02  0.0
 -1.750000045000e-01  -2.103175036500e-02  0.0
 -2.000000030000e-01  -1.777778007000e-02  0.0
 -1.500000060000e-01  -2.428572066000e-02  0.0
 -1.500000060000e-01  -4.857143107500e-02  0.0
 -1.500000060000e-01  -7.285714149000e-02  0.0
 -1.281259023000e-01  -2.896608505500e-02  0.0
 -1.281259023000e-01  -5.325179547000e-02  0.0
 -1.062517986000e-01  -3.364644945000e-02  0.0
 -1.099999994000e-01   1.996667010000e-08  0.0
 -1.300000027000e-01  -1.214285034666e-02  0.0
 -1.500000060000e-01  -2.428572066000e-02  0.0
 -1.081258990000e-01  -1.682321474166e-02  0.0
 -1.281259023000e-01  -2.896608505500e-02  0.0
 -1.062517986000e-01  -3.364644945000e-02  0.0
 -1.500000060000e-01  -2.428572066000e-02  0.0
 -1.500000060000e-01   0.000000000000e+00  0.0
 -1.500000060000e-01   2.428572066000e-02  0.0
 -1.750000045000e-01  -2.103175036500e-02  0.0
 -1.750000045000e-01   3.253970295000e-03  0.0
 -2.000000030000e-01  -1.777778007000e-02  0.0
 -1.500000060000e-01  -7.285714149000e-02  0.0
 -1.226314045700e-01  -6.892856210000e-02  0.0
 -9.526280314000e-02  -6.499998271000e-02  0.0
 -1.281259023000e-01  -5.325179547000e-02  0.0
 -1.007573008700e-01  -4.932321608000e-02  0.0
 -1.062517986000e-01  -3.364644945000e-02  0.0
  3.499999940000e-01   1.400000006000e-01  0.0
  4.021931737500e-01   1.224999986500e-01  0.0
  4.543863535000e-01   1.049999967000e-01  0.0
  4.187500029500e-01   1.749999970000e-01  0.0
  4.709431827000e-01   1.574999950500e-01  0.0
  4.875000119000e-01   2.099999934000e-01  0.0
 -7.101409137000e-02  -4.349999130000e-02  0.0
 -8.313844725500e-02  -5.424998700500e-02  0.0
 -9.526280314000e-02  -6.499998271000e-02  0.0
 -6.449843011500e-02  -5.250913650000e-02  0.0
 -7.662278600000e-02  -6.325913220500e-02  0.0
 -5.798276886000e-02  -6.151828170000e-02  0.0
 -9.526280314000e-02  -6.499998271000e-02  0.0
 -1.226314045700e-01  -6.892856210000e-02  0.0
 -1.500000060000e-01  -7.285714149000e-02  0.0
 -1.051314026200e-01  -8.249999210500e-02  0.0
 -1.325000040500e-01  -8.642857149500e-02  0.0
 -1.150000021000e-01  -1.000000015000e-01  0.0
 -6.181925908000e-02  -1.656441018000e-02  0.0
 -7.051259093000e-02  -1.954082492500e-02  0.0
 -7.920592278000e-02  -2.251723967000e-02  0.0
 -5.862244405000e-02  -2.428220026000e-02  0.0
 -6.731577590000e-02  -2.725861500500e-02  0.0
 -5.542562902000e-02  -3.199999034000e-02  0.0
 -7.920592278000e-02  -2.251723967000e-02  0.0
 -9.272886069000e-02  -2.808184456000e-02  0.0
 -1.062517986000e-01  -3.364644945000e-02  0.0
 -7.511000707500e-02  -3.300861548500e-02  0.0
 -8.863294498500e-02  -3.857322037500e-02  0.0
 -7.101409137000e-02  -4.349999130000e-02  0.0
 -7.101409137000e-02  -4.349999130000e-02  0.0
 -6.321986019500e-02  -3.774999082000e-02  0.0
 -5.542562902000e-02  -3.199999034000e-02  0.0
 -7.511000707500e-02  -3.300861548500e-02  0.0
 -6.731577590000e-02  -2.725861500500e-02  0.0
 -7.920592278000e-02  -2.251723967000e-02  0.0
 -7.920592278000e-02  -2.251723967000e-02  0.0
 -9.460296109000e-02  -1.125860985166e-02  0.0
 -1.099999994000e-01   1.996667010000e-08  0.0
 -9.272886069000e-02  -2.808184456000e-02  0.0
 -1.081258990000e-01  -1.682321474166e-02  0.0
 -1.062517986000e-01  -3.364644945000e-02  0.0
 -7.778175920000e-02  -9.192386270000e-02  0.0
 -6.788226403000e-02  -7.672107220000e-02  0.0
 -5.798276886000e-02  -6.151828170000e-02  0.0
 -8.652228117000e-02  -7.846192270500e-02  0.0
 -7.662278600000e-02  -6.325913220500e-02  0.0
 -9.526280314000e-02  -6.499998271000e-02  0.0
 -7.101409137000e-02  -4.349999130000e-02  0.0
 -8.863294498500e-02  -3.857322037500e-02  0.0
 -1.062517986000e-01  -3.364644945000e-02  0.0
 -8.313844725500e-02  -5.424998700500e-02  0.0
 -1.007573008700e-01  -4.932321608000e-02  0.0
 -9.526280314000e-02  -6.499998271000e-02  0.0
 -7.778175920000e-02  -9.192386270000e-02  0.0
 -8.652228117000e-02  -7.846192270500e-02  0.0
 -9.526280314000e-02  -6.499998271000e-02  0.0
 -9.639088065000e-02  -9.596193210000e-02  0.0
 -1.051314026200e-01  -8.249999210500e-02  0.0
 -1.150000021000e-01  -1.000000015000e-01  0.0
[...]
POINT_DATA 2244
SCALARS field1 double 1
LOOKUP_TABLE default
  2.722339142601e-03 
  8.516832684805e-02 
  1.676143145535e-01 
  1.364413899213e-03 
  8.381040160466e-02 
  6.488655825863e-06 
  2.787257503552e-01 
  1.388875874222e-01 
 -9.505755107501e-04 
  1.403285275352e-01 
  4.903646021951e-04 
  1.931304715140e-03 
  1.654619344772e-01 
  2.141518107671e-01 
  2.628416870571e-01 
  2.279711139140e-01 
  2.766609902039e-01 
  2.904802933507e-01 
  2.642646090676e-01 
  2.146844794329e-01 
  1.651043497982e-01 
  2.011180575692e-01 
  1.515379279345e-01 
  1.379715060708e-01 
  3.600718281558e-01 
  3.254305373384e-01 
  2.907892465210e-01 
  3.133424266518e-01 
  2.787011358344e-01 
  2.666130251478e-01 
  2.941112460494e-01 
  1.468516391916e-01 
 -4.079676661186e-04 
  2.999783762521e-01 
  1.527187693944e-01 
  3.058455064548e-01 
  1.383529168682e-01 
  1.963862926256e-01 
  2.544196683830e-01 
  2.019689780826e-01 
  2.600023538400e-01 
  2.655850392970e-01 
  3.299821709606e-01 
  3.362635558323e-01 
  3.425449407040e-01 
  3.363695804089e-01 
  3.426509652806e-01 
  3.427569898572e-01 
  2.015204786102e-01 
  2.392950509056e-01 
  2.770696232011e-01 
  2.443629730505e-01 
  2.821375453459e-01 
  2.872054674908e-01 
  3.929884721961e-04 
  1.009315676216e-01 
  2.014701467710e-01 
  6.705448892490e-02 
  1.675930680743e-01 
  1.337159893776e-01 
  2.511640804863e-01 
  2.674840989213e-01 
  2.838041173563e-01 
  2.914682997304e-01 
  3.077883181654e-01 
  3.317725189745e-01 
  2.847053347554e-01 
  2.680182880504e-01 
  2.513312413453e-01 
  2.431878028876e-01 
  2.265007561826e-01 
  2.016702710199e-01 
  3.668992091767e-01 
  3.490103461043e-01 
  3.311214830319e-01 
  3.266987094983e-01 
  3.088098464259e-01 
  2.864982098199e-01 
  2.524286920349e-01 
  2.926728718755e-01 
  3.329170517161e-01 
  2.598570195385e-01 
  3.001011993791e-01 
  2.672853470420e-01 
  3.671313519548e-01 
  3.268524550543e-01 
  2.865735581538e-01 
  3.755703197665e-01 
  3.352914228660e-01 
  3.840092875783e-01 
  1.999787971192e-01 
  2.270614401542e-01 
  2.541440831892e-01 
  1.683325485367e-01 
  1.954151915717e-01 
  1.366862999543e-01 
  1.578459281580e-03 
  2.834418387199e-03 
  4.090377492818e-03 
  1.890932666653e-01 
  1.903492257710e-01 
  3.766080740491e-01 
  3.596497722427e-01 
  3.135137540067e-01 
  2.673777357707e-01 
  3.464490007558e-01 
  3.003129825198e-01 
  3.332482292690e-01 
  3.754913676094e-01 
  3.662928060382e-01 
  3.570942444670e-01 
  3.849608911160e-01 
  3.757623295449e-01 
  3.944304146227e-01 
  3.746020137463e-01 
  3.331614772733e-01 
  2.917209408004e-01 
  3.663134890679e-01 
  3.248729525949e-01 
  3.580249643895e-01 
  3.766971424291e-01 
  3.856681302949e-01 
  3.946391181608e-01 
  3.972834760366e-01 
  4.062544639024e-01 
  4.178698096441e-01 
  3.947616026897e-01 
  3.773673487123e-01 
  3.599730947348e-01 
  3.659765713387e-01 
  3.485823173612e-01 
  3.371915399877e-01 
  3.144074114281e-01 
  3.547516496281e-01 
  3.950958878281e-01 
  3.240177280217e-01 
  3.643619662217e-01 
  3.336280446153e-01 
  3.906019883079e-01 
  3.945111141421e-01 
  3.984202399763e-01 
  4.045349322994e-01 
  4.084440581337e-01 
  4.184678762910e-01 
  3.590068486835e-01 
  3.477808816477e-01 
  3.365549146118e-01 
  3.474792182283e-01 
  3.362532511924e-01 
  3.359515877730e-01 
  3.348812293012e-01 
  3.673191640915e-01 
  3.997570988819e-01 
  1.955498235919e-01 
  2.279877583823e-01 
  5.621841788256e-02 
  3.010958632880e-01 
  3.219394262166e-01 
  3.427829891452e-01 
  3.386805362663e-01 
  3.595240991949e-01 
  3.762652092445e-01 
  3.378459996067e-01 
  3.485504299294e-01 
  3.592548602521e-01 
  3.361105113552e-01 
  3.468149416778e-01 
  3.343750231036e-01 
  1.136923578219e-01 
  1.755527561042e-01 
  2.374131543866e-01 
  1.481961910936e-01 
  2.100565893760e-01 
  1.827000243654e-01 
  2.301233228223e-01 
  2.812988671139e-01 
  3.324744114055e-01 
  2.655880985691e-01 
  3.167636428607e-01 
  3.010528743158e-01 
  3.009965348239e-01 
  2.437418785994e-01 
  1.864872223750e-01 
  2.676799783301e-01 
  2.104253221057e-01 
  2.343634218363e-01 
  2.290383089526e-01 
  2.699289269858e-01 
  3.108195450190e-01 
  2.812080945260e-01 
  3.220987125592e-01 
  3.333778800994e-01 
  3.679100655564e-01 
  3.735837618760e-01 
  3.792574581956e-01 
  3.545280320016e-01 
  3.602017283212e-01 
  3.411459984468e-01 
  3.031662496347e-01 
  3.184297468715e-01 
  3.336932441082e-01 
  3.232898981009e-01 
  3.385533953377e-01 
  3.434135465671e-01 
  3.642355258261e-01 
  3.513541669703e-01 
  3.384728081146e-01 
  3.480246961850e-01 
  3.351433373293e-01 
  3.318138665439e-01 
  2.348376875634e-01 
  1.754386294258e-01 
  1.160395712881e-01 
  2.216886156612e-01 
  1.622895575236e-01 
  2.085395437591e-01 
  3.826391478925e-01 
  3.350093017562e-01 
  2.873794556199e-01 
  3.304369921311e-01 
  2.828071459948e-01 
  2.782348363696e-01 
  2.902032211553e-01 
  3.018332023989e-01 
  3.134631836425e-01 
  2.980411635963e-01 
  3.096711448400e-01 
  3.058791060374e-01 
  4.057628484699e-01 
  3.748515458781e-01 
  3.439402432863e-01 
  4.238767033616e-01 
  3.929654007698e-01 
  4.419905582533e-01 
  4.024370961703e-01 
  3.914983695741e-01 
  3.805596429778e-01 
  3.405934200467e-01 
  3.296546934504e-01 
  2.787497439230e-01 
  3.665217613916e-01 
  4.060903177513e-01 
  4.456588741110e-01 
  3.725115160348e-01 
  4.120800723946e-01 
  3.785012706781e-01 
  4.476614531305e-01 
  4.071354736058e-01 
  3.666094940810e-01 
  4.175969360281e-01 
  3.770709565034e-01 
  3.875324189258e-01 
  5.104393218732e-01 
  4.800633837784e-01 
  4.496874456836e-01 
  4.474229396492e-01 
  4.170470015544e-01 
  3.844065574251e-01 
  4.032658851924e-01 
  3.904749529373e-01 
  3.776840206821e-01 
  4.272198033489e-01 
  4.144288710937e-01 
  4.511737215054e-01 
  3.816118447901e-01 
  3.941013291087e-01 
  4.065908134272e-01 
  4.469351604957e-01 
  4.594246448143e-01 
  5.122584762013e-01 
  4.049168094441e-01 
  3.424041517253e-01 
  2.798914940065e-01 
  3.740112988219e-01 
  3.114986411031e-01 
  3.431057881997e-01 
  5.453283867821e-01 
  5.297380428771e-01 
  5.141476989721e-01 
  4.773700024708e-01 
  4.617796585658e-01 
  4.094116181595e-01 
  1.293288929625e-03 
  1.995319043271e-01 
  3.977705197247e-01 
 -1.509093902911e-03 
  1.967295214946e-01 
 -4.311476735448e-03 
  5.219598328554e-01 
  4.665509357487e-01 
  4.111420386420e-01 
  4.784403135460e-01 
  4.230314164393e-01 
  4.349207942367e-01 
  4.091319092709e-01 
  4.655095721106e-01 
  5.218872349502e-01 
  4.731502152142e-01 
  5.295278780538e-01 
  5.371685211574e-01 
  4.335566547717e-01 
  4.213255094561e-01 
  4.090943641404e-01 
  2.211289078195e-01 
  2.088977625039e-01 
  8.701160867351e-03 
  5.137539318191e-01 
  4.758289139291e-01 
  4.379038960391e-01 
  4.831714573188e-01 
  4.452464394288e-01 
  4.525889828184e-01 
  5.040338928964e-01 
  4.512341649512e-01 
  3.984344370059e-01 
  5.219428217982e-01 
  4.691430938529e-01 
  5.398517506999e-01 
  5.444714027167e-01 
  4.773772212819e-01 
  4.102830398470e-01 
  4.916070852973e-01 
  4.245129038625e-01 
  4.387427678779e-01 
  3.444608971725e-01 
  3.566436753782e-01 
  3.688264535839e-01 
  3.935501512846e-01 
  4.057329294903e-01 
  4.426394053966e-01 
  4.013266185738e-01 
  4.285802717405e-01 
  4.558339249071e-01 
  4.186127782589e-01 
  4.458664314256e-01 
  4.358989379441e-01 
 -1.582683284791e-03 
  9.439572403241e-02 
  1.903741313496e-01 
  4.019243722629e-03 
  9.999765103983e-02 
  9.621170730049e-03 
  1.875022515449e-01 
  2.424028799223e-01 
  2.973035082998e-01 
  2.465373215679e-01 
  3.014379499453e-01 
  3.055723915908e-01 
  3.051141500042e-01 
  1.558860800277e-01 
  6.658010051262e-03 
  1.522641383019e-01 
  3.036068325395e-03 
 -5.858734004724e-04 
 -6.926409446933e-03 
  1.687685501065e-02 
  4.068011946824e-02 
  5.238252363477e-02 
  7.618578809236e-02 
  1.116914567165e-01 
  2.705922537776e-03 
 -2.569668531434e-03 
 -7.845259600644e-03 
  9.089562920320e-02 
  8.562003813399e-02 
  1.790853358686e-01 
  2.285950098394e-01 
  1.147908419932e-01 
  9.866741468968e-04 
  1.974368012524e-01 
  8.363263340616e-02 
  1.662785926654e-01 
  1.888413862446e-01 
  2.509103533563e-01 
  3.129793204679e-01 
  1.009879114895e-01 
  1.630568786012e-01 
  1.313443673446e-02 
 -1.042209657415e-02 
  4.995349547416e-02 
  1.103290875225e-01 
  8.398934126620e-02 
  1.443649333145e-01 
  1.784007791065e-01 
  3.306443671470e-03 
  3.968167164943e-03 
  4.629890658416e-03 
  2.199475929717e-01 
  2.206093164652e-01 
  4.365887422720e-01 
  7.405669735661e-03 
  2.090756277266e-01 
  4.107455857175e-01 
  4.535918648804e-03 
  2.062058766397e-01 
  1.666167561947e-03 
  3.631904239269e-01 
  1.839886856493e-01 
  4.786947371656e-03 
  3.315413363803e-01 
  1.523395981027e-01 
  2.998922488337e-01 
  3.077666165654e-03 
  1.647592007522e-01 
  3.264407353387e-01 
  7.614489386496e-03 
  1.692960239730e-01 
  1.215131260734e-02 
  1.090883084323e-02 
  2.062643450716e-01 
  4.016198593000e-01 
  2.215861609865e-01 
  4.169416752149e-01 
  4.322634911299e-01 
  3.458656108795e-01 
  1.773682854095e-01 
  8.870959939498e-03 
  3.571107099127e-01 
  1.886133844427e-01 
  3.683558089459e-01 
  2.056966508884e-01 
  1.032133887739e-01 
  7.301266594156e-04 
  1.046845307383e-01 
  2.201268623834e-03 
  3.672410588252e-03 
  1.881580975322e-02 
  1.702294700843e-01 
  3.216431304153e-01 
  2.096167667278e-01 
  3.610304270589e-01 
  4.004177237024e-01 
  3.118444797690e-01 
  3.451550985618e-01 
  3.784657173546e-01 
  3.568798799086e-01 
  3.901904987014e-01 
  4.019152800482e-01 
  2.846232929063e-01 
  1.464950352328e-01 
  8.366777559290e-03 
  3.115706552697e-01 
  1.734423975962e-01 
  3.385180176331e-01 
  5.419245805478e-01 
  4.896737993689e-01 
  4.374230181901e-01 
  4.992148498717e-01 
  4.469640686928e-01 
  4.565051191956e-01 
  3.070138131420e-01 
  3.018075236719e-01 
  2.966012342018e-01 
  3.430782875936e-01 
  3.378719981235e-01 
  3.791427620453e-01 
  1.482534312978e-03 
  4.143597088755e-03 
  6.804659864532e-03 
  1.449376344197e-01 
  1.475986971955e-01 
  2.883927345265e-01 
  3.591299561108e-02 
  1.639006450433e-02 
 -3.132866602412e-03 
  1.625679165656e-02 
 -3.266139450186e-03 
 -3.399412297960e-03 
  3.804148133395e-01 
  3.891335059915e-01 
  3.978521986435e-01 
  3.622392113464e-01 
  3.709579039985e-01 
  3.440636093534e-01 
  3.995573046135e-01 
  4.082395801482e-01 
  4.169218556828e-01 
  4.093707262989e-01 
  4.180530018336e-01 
  4.191841479843e-01 
  4.154912306140e-01 
  3.959884140413e-01 
  3.764855974685e-01 
  3.952434480336e-01 
  3.757406314608e-01 
  3.749956654531e-01 
  3.766765497570e-01 
  3.957328852510e-01 
  4.147892207451e-01 
  3.868235240001e-01 
  4.058798594942e-01 
  3.969704982433e-01 
  3.741961395905e-01 
  3.762494691750e-01 
  3.783027987595e-01 
  3.332882158243e-01 
  3.353415454088e-01 
  2.923802920580e-01 
  1.442644012008e-04 
 -1.737947451912e-02 
 -3.490321343943e-02 
  1.403290237448e-01 
  1.228052848245e-01 
  2.805137830884e-01 
  3.996162120002e-01 
  3.575020652213e-01 
  3.153879184423e-01 
  3.697473245849e-01 
  3.276331778060e-01 
  3.398784371696e-01 
  3.990098228279e-01 
  3.959861177207e-01 
  3.929624126135e-01 
  3.584696162352e-01 
  3.554459111281e-01 
  3.179294096426e-01 
  2.295736926154e-01 
  2.845662204946e-01 
  3.395587483738e-01 
  2.711304706442e-01 
  3.261229985234e-01 
  3.126872486731e-01 
  3.153453894859e-01 
  2.736023579727e-01 
  2.318593264596e-01 
  2.566287916457e-01 
  2.148857601325e-01 
  1.979121938054e-01 
  3.384058866809e-01 
  3.241686388948e-01 
  3.099313911087e-01 
  3.421856273590e-01 
  3.279483795728e-01 
  3.459653680370e-01 
  3.094724542885e-01 
  3.231612534404e-01 
  3.368500525924e-01 
  2.700066555094e-01 
  2.836954546614e-01 
  2.305408567304e-01 
  3.693953173759e-01 
  3.565404297052e-01 
  3.436855420346e-01 
  3.808606093158e-01 
  3.680057216452e-01 
  3.923259012557e-01 
  3.421349278422e-01 
  3.426833582617e-01 
  3.432317886811e-01 
  3.615305123185e-01 
  3.620789427379e-01 
  3.809260967947e-01 
  2.328085200881e-01 
  2.199795486993e-01 
  2.071505773106e-01 
  1.744587991713e-01 
  1.616298277825e-01 
  1.161090782545e-01 
  2.298179122080e-01 
  2.706330975079e-01 
  3.114482828078e-01 
  2.183275225973e-01 
  2.591427078972e-01 
  2.068371329866e-01 
  3.100072097339e-01 
  2.699552999014e-01 
  2.299033900689e-01 
  2.589961218674e-01 
  2.189442120349e-01 
  2.079850340009e-01 
  3.801412657769e-01 
  3.628453762533e-01 
  3.455494867298e-01 
  3.647143235220e-01 
  3.474184339984e-01 
  3.492873812670e-01 
  2.912027225873e-01 
  2.861073885289e-01 
  2.810120544705e-01 
  2.285227778955e-01 
  2.234274438371e-01 
  1.658428332037e-01 
  2.919951126641e-01 
  3.359515284229e-01 
  3.799079441817e-01 
  2.879865071093e-01 
  3.319429228681e-01 
  2.839779015545e-01 
  1.648529219588e-01 
  1.673170741816e-01 
  1.697812264044e-01 
  8.266488812589e-02 
  8.512904034870e-02 
  4.768542929969e-04 
  1.710546078088e-01 
  1.680308031187e-01 
  1.650069984286e-01 
  2.265280476362e-01 
  2.235042429460e-01 
  2.820014874635e-01 
  2.402219506497e-01 
  1.235040303871e-01 
  6.786110124396e-03 
  1.195769401457e-01 
  2.859019883061e-03 
 -1.068070358274e-03 
  2.747390959923e-02 
  1.518693703141e-02 
  2.899964463596e-03 
  1.916314947709e-01 
  1.793445222030e-01 
  3.557890799425e-01 
  2.835197756044e-01 
  2.754181301028e-01 
  2.673164846013e-01 
  2.271727562123e-01 
  2.190711107107e-01 
  1.708257368202e-01 
  3.199624966966e-01 
  1.590380624170e-01 
 -1.886371862527e-03 
  1.719653090167e-01 
  1.104087473714e-02 
  2.396812133680e-02 
  3.465821426824e-01 
  3.563194718681e-01 
  3.660568010538e-01 
  3.269509573168e-01 
  3.366882865025e-01 
  3.073197719512e-01 
  3.650841876152e-01 
  3.565034367470e-01 
  3.479226858789e-01 
  3.554190104458e-01 
  3.468382595777e-01 
  3.457538332765e-01 
  2.625769584119e-01 
  2.862516767863e-01 
  3.099263951606e-01 
  2.471332783824e-01 
  2.708079967567e-01 
  2.316895983528e-01 
  3.061507954559e-01 
  2.855837249354e-01 
  2.650166544150e-01 
  3.263260338817e-01 
  3.057589633612e-01 
  3.465012723074e-01 
  2.355541944128e-01 
  2.736658145826e-01 
  3.117774347523e-01 
  2.735244887250e-01 
  3.116361088948e-01 
  3.114947830372e-01 
  2.660440331140e-01 
  2.464910483256e-01 
  2.269380635372e-01 
  2.173180924493e-01 
  1.977651076609e-01 
  1.685921517847e-01 
  3.653028140488e-01 
  3.714837406602e-01 
  3.776646672715e-01 
  3.366705603356e-01 
  3.428514869469e-01 
  3.080383066223e-01 
  3.475153062524e-01 
  3.071517114457e-01 
  2.667881166390e-01 
  3.158568289263e-01 
  2.754932341196e-01 
  2.841983516003e-01 
  3.793645273325e-01 
  3.633272278119e-01 
  3.472899282913e-01 
  3.316124439764e-01 
  3.155751444559e-01 
  2.838603606204e-01 
  2.404480857832e-01 
  2.731196328860e-01 
  3.057911799889e-01 
  1.243411106478e-01 
  1.570126577506e-01 
  8.234135512402e-03 
  3.425158602155e-01 
  3.270814772214e-01 
  3.116470942273e-01 
  3.667769755197e-01 
  3.513425925256e-01 
  3.910380908239e-01 
  5.895105767452e-02 
  1.709486814320e-01 
  2.829463051894e-01 
  1.251389111790e-01 
  2.371365349365e-01 
  1.913267646835e-01 
  3.865959090556e-02 
  1.762755435878e-02 
 -3.404482187987e-03 
  7.675170972879e-02 
  5.571967318202e-02 
  1.148438285520e-01 
  3.522383702291e-02 
  1.566926859064e-02 
 -3.885299841623e-03 
  1.671125241670e-02 
 -2.843316015569e-03 
 -1.801332189515e-03 
  1.167669996325e-01 
  5.901180000134e-02 
  1.256600370221e-03 
  1.538294984473e-01 
  9.607429881621e-02 
  1.908919972622e-01 
  2.879503729497e-01 
  2.393823191556e-01 
  1.908142653616e-01 
  1.427460897042e-01 
  9.417803591010e-02 
 -2.458193541350e-03 
  2.958467229556e-01 
  3.460572535237e-01 
  3.962677840919e-01 
  3.061449975662e-01 
  3.563555281344e-01 
  3.164432721768e-01 
  2.917526761591e-01 
  3.055119495521e-01 
  3.192712229451e-01 
  2.430704199099e-01 
  2.568296933030e-01 
  1.943881636608e-01 
  2.035597655072e-03 
  5.918565921468e-02 
  1.163357207743e-01 
 -4.474299808947e-05 
  5.710531856152e-02 
 -2.125083651251e-03 
  2.340838840166e-01 
  1.751008537163e-01 
  1.161178234160e-01 
  2.143530553760e-01 
  1.553700250757e-01 
  1.946222267355e-01 
 -1.121913746821e-03 
  2.311226092946e-03 
  5.744365932713e-03 
  1.443891749830e-01 
  1.478223148227e-01 
  2.899002637127e-01 
  3.730825151576e-01 
  1.908329685179e-01 
  8.583421878170e-03 
  3.647077781619e-01 
  1.824582315221e-01 
  3.563330411661e-01 
  2.595879121330e-01 
  1.875909558831e-01 
  1.155939996333e-01 
  3.304000364463e-01 
  2.584030801964e-01 
  4.012121607595e-01 
  1.673616252649e-01 
  8.510671195222e-02 
  2.851798639485e-03 
  1.514900739817e-01 
  6.923516066900e-02 
  1.356185226985e-01 
  4.148894305039e-01 
  2.088393793120e-01 
  2.789328120112e-03 
  2.123123696466e-01 
  6.262318454770e-03 
  9.735308789428e-03 
  4.038678117764e-01 
  2.015699991817e-01 
 -7.278134130658e-04 
  2.062401131839e-01 
  3.942300589120e-03 
  8.612414591306e-03 
  3.058373068670e-01 
  1.555063360189e-01 
  5.175365170795e-03 
  2.834983117455e-01 
  1.331673408974e-01 
  2.611593166239e-01 
  2.867547378022e-01 
  1.445857414076e-01 
  2.416745013077e-03 
  3.405517059331e-01 
  1.983827095385e-01 
  3.943486740639e-01 
  3.410668089333e-01 
  3.280613587597e-01 
  3.150559085860e-01 
  3.369217833622e-01 
  3.239163331885e-01 
  3.327767577911e-01 
  4.428520181816e-01 
  2.236468525804e-01 
  4.441686979192e-03 
  2.225141015080e-01 
  3.308935906816e-03 
  2.176184834441e-03 
  3.941259400078e-01 
  3.954877406491e-01 
  3.968495412904e-01 
  4.288338702366e-01 
  4.301956708779e-01 
  4.635418004654e-01 
  3.923862052639e-01 
  3.950826924590e-01 
  3.977791796541e-01 
  3.419208178574e-01 
  3.446173050525e-01 
  2.914554304509e-01 
  3.992557697930e-01 
  3.531879163920e-01 
  3.071200629911e-01 
  3.883410637113e-01 
  3.422732103104e-01 
  3.774263576296e-01 
  3.105938110046e-01 
  3.108213547263e-01 
  3.110488984480e-01 
  3.435653414709e-01 
  3.437928851926e-01 
  3.765368719373e-01 
  3.831649687584e-01 
  3.746812774251e-01 
  3.661975860918e-01 
  4.232349716788e-01 
  4.147512803455e-01 
  4.633049745993e-01 
  4.636427131291e-01 
  4.912492062162e-01 
  5.188556993033e-01 
  4.230020619828e-01 
  4.506085550699e-01 
  3.823614108366e-01 
  4.634933847838e-01 
  4.326020470676e-01 
  4.017107093514e-01 
  4.515463404830e-01 
  4.206550027668e-01 
  4.395992961822e-01 
  3.926436903354e-01 
  4.267111665397e-01 
  4.607786427440e-01 
  3.799045847246e-01 
  4.139720609290e-01 
  3.671654791139e-01 
  4.373668920463e-01 
  4.261344996007e-01 
  4.149021071550e-01 
  4.808920566377e-01 
  4.696596641921e-01 
  5.244172212291e-01 
  4.397513469547e-01 
  4.252473657520e-01 
  4.107433845494e-01 
  2.275305968473e-01 
  2.130266156446e-01 
  1.530984673982e-02 
  4.106787450327e-01 
  4.660723909619e-01 
  5.214660368911e-01 
  4.758718343642e-01 
  5.312654802934e-01 
  5.410649236956e-01 
  5.212332019532e-01 
  4.641104527013e-01 
  4.069877034493e-01 
  4.503897967253e-01 
  3.932670474733e-01 
  3.795463914974e-01 
  3.621532894603e-01 
  3.823924413089e-01 
  4.026315931574e-01 
  4.040477216183e-01 
  4.242868734668e-01 
  4.459421537763e-01 
  4.014144730919e-01 
  3.811664115068e-01 
  3.609183499216e-01 
  3.526445079192e-01 
  3.323964463340e-01 
  3.038745427464e-01 
  5.324888210029e-01 
  5.287018006341e-01 
  5.249147802652e-01 
  4.725830692464e-01 
  4.687960488776e-01 
  4.126773174900e-01 
  4.387132597408e-01 
  4.784999417543e-01 
  5.182866237678e-01 
  4.506165920357e-01 
  4.904032740492e-01 
  4.625199243306e-01 
  8.599106757574e-03 
  2.112900457856e-01 
  4.139809848136e-01 
  2.240228300354e-01 
  4.267137690634e-01 
  4.394465533133e-01 