# vtk DataFile Version 2
NuDG++ 2D simulation
ASCII
DATASET UNSTRUCTURED_GRID

POINTS 2244 double
 -1.656250060000e-01  -2.000000030000e-01  0.0
 -1.828125045000e-01  -1.772221997500e-01  0.0
 -2.000000030000e-01  -1.544443965000e-01  0.0
 -1.828125045000e-01  -2.000000030000e-01  0.0
 -2.000000030000e-01  -1.772221997500e-01  0.0
 -2.000000030000e-01  -2.000000030000e-01  0.0
 -6.428571790000e-02  -1.700000018000e-01  0.0
 -8.058035746000e-02  -1.850000024000e-01  0.0
 -9.687499702000e-02  -2.000000030000e-01  0.0
 -6.339285895000e-02  -1.850000024000e-01  0.0
 -7.968749851000e-02  -2.000000030000e-01  0.0
 -6.250000000000e-02  -2.000000030000e-01  0.0
 -2.000000030000e-01  -1.544443965000e-01  0.0
 -1.750000045000e-01  -1.379364989500e-01  0.0
 -1.500000060000e-01  -1.214286014000e-01  0.0
 -2.000000030000e-01  -1.316666491500e-01  0.0
 -1.750000045000e-01  -1.151587516000e-01  0.0
 -2.000000030000e-01  -1.088889018000e-01  0.0
 -1.500000060000e-01  -1.214286014000e-01  0.0
 -1.750000045000e-01  -1.379364989500e-01  0.0
 -2.000000030000e-01  -1.544443965000e-01  0.0
 -1.500000060000e-01  -1.457143016000e-01  0.0
 -1.750000045000e-01  -1.622221991500e-01  0.0
 -1.500000060000e-01  -1.700000018000e-01  0.0
 -1.500000060000e-01  -7.285714149000e-02  0.0
 -1.750000045000e-01  -9.087302164500e-02  0.0
 -2.000000030000e-01  -1.088889018000e-01  0.0
 -1.500000060000e-01  -9.714287144500e-02  0.0
 -1.750000045000e-01  -1.151587516000e-01  0.0
 -1.500000060000e-01  -1.214286014000e-01  0.0
  1.832975030000e+00  -4.625000060000e-02  0.0
  1.853987515000e+00  -1.231250018000e-01  0.0
  1.875000000000e+00  -2.000000030000e-01  0.0
  1.916487515000e+00  -7.187499851000e-02  0.0
  1.937500000000e+00  -1.487499997100e-01  0.0
  2.000000000000e+00  -9.749999642000e-02  0.0
 -1.500000060000e-01  -1.700000018000e-01  0.0
 -1.360000037000e-01  -1.525000036000e-01  0.0
 -1.220000014000e-01  -1.350000054000e-01  0.0
 -1.500000060000e-01  -1.457143016000e-01  0.0
 -1.360000037000e-01  -1.282143034000e-01  0.0
 -1.500000060000e-01  -1.214286014000e-01  0.0
  2.849999964000e-01  -2.333333530000e-02  0.0
  2.837499976000e-01  -8.166666795000e-02  0.0
  2.824999988000e-01  -1.400000006000e-01  0.0
  3.174999952000e-01  -4.666666780000e-02  0.0
  3.162499964000e-01  -1.050000004500e-01  0.0
  3.499999940000e-01  -7.000000030000e-02  0.0
 -1.071429029000e-01  -1.700000018000e-01  0.0
 -8.571431040000e-02  -1.700000018000e-01  0.0
 -6.428571790000e-02  -1.700000018000e-01  0.0
 -9.857145324000e-02  -1.525000036000e-01  0.0
 -7.714286074000e-02  -1.525000036000e-01  0.0
 -9.000000358000e-02  -1.350000054000e-01  0.0
 -1.312499940000e-01  -2.000000030000e-01  0.0
 -1.191964484500e-01  -1.850000024000e-01  0.0
 -1.071429029000e-01  -1.700000018000e-01  0.0
 -1.406250000000e-01  -1.850000024000e-01  0.0
 -1.285714544500e-01  -1.700000018000e-01  0.0
 -1.500000060000e-01  -1.700000018000e-01  0.0
 -1.220000014000e-01  -1.350000054000e-01  0.0
 -1.060000024900e-01  -1.350000054000e-01  0.0
 -9.000000358000e-02  -1.350000054000e-01  0.0
 -1.185000017500e-01  -1.175000034500e-01  0.0
 -1.025000028400e-01  -1.175000034500e-01  0.0
 -1.150000021000e-01  -1.000000015000e-01  0.0
 -9.000000358000e-02  -1.350000054000e-01  0.0
 -1.060000024900e-01  -1.350000054000e-01  0.0
 -1.220000014000e-01  -1.350000054000e-01  0.0
 -9.857145324000e-02  -1.525000036000e-01  0.0
 -1.145714521500e-01  -1.525000036000e-01  0.0
 -1.071429029000e-01  -1.700000018000e-01  0.0
 -7.778175920000e-02  -9.192386270000e-02  0.0
 -9.639088065000e-02  -9.596193210000e-02  0.0
 -1.150000021000e-01  -1.000000015000e-01  0.0
 -8.389088139000e-02  -1.134619340500e-01  0.0
 -1.025000028400e-01  -1.175000034500e-01  0.0
 -9.000000358000e-02  -1.350000054000e-01  0.0
 -1.220000014000e-01  -1.350000054000e-01  0.0
 -1.185000017500e-01  -1.175000034500e-01  0.0
 -1.150000021000e-01  -1.000000015000e-01  0.0
 -1.360000037000e-01  -1.282143034000e-01  0.0
 -1.325000040500e-01  -1.107143014500e-01  0.0
 -1.500000060000e-01  -1.214286014000e-01  0.0
 -7.778175920000e-02  -9.192386270000e-02  0.0
 -8.389088139000e-02  -1.134619340500e-01  0.0
 -9.000000358000e-02  -1.350000054000e-01  0.0
 -6.639088876500e-02  -1.022535823500e-01  0.0
 -7.250001095500e-02  -1.237916537000e-01  0.0
 -5.500001833000e-02  -1.125833020000e-01  0.0
 -1.071429029000e-01  -1.700000018000e-01  0.0
 -1.145714521500e-01  -1.525000036000e-01  0.0
 -1.220000014000e-01  -1.350000054000e-01  0.0
 -1.285714544500e-01  -1.700000018000e-01  0.0
 -1.360000037000e-01  -1.525000036000e-01  0.0
 -1.500000060000e-01  -1.700000018000e-01  0.0
  6.250000093000e-03  -2.000000030000e-01  0.0
  4.062500153650e-02  -2.000000030000e-01  0.0
  7.500000298000e-02  -2.000000030000e-01  0.0
  1.383928512150e-02  -1.850000024000e-01  0.0
  4.821428656500e-02  -1.850000024000e-01  0.0
  2.142857015000e-02  -1.700000018000e-01  0.0
 -1.500000060000e-01  -7.285714149000e-02  0.0
 -1.500000060000e-01  -9.714287144500e-02  0.0
 -1.500000060000e-01  -1.214286014000e-01  0.0
 -1.325000040500e-01  -8.642857149500e-02  0.0
 -1.325000040500e-01  -1.107143014500e-01  0.0
 -1.150000021000e-01  -1.000000015000e-01  0.0
 -2.000000030000e-01  -6.333333254000e-02  0.0
 -1.750000045000e-01  -6.809523701500e-02  0.0
 -1.500000060000e-01  -7.285714149000e-02  0.0
 -1.750000045000e-01  -4.380952660000e-02  0.0
 -1.500000060000e-01  -4.857143107500e-02  0.0
 -1.500000060000e-01  -2.428572066000e-02  0.0
 -2.000000030000e-01  -6.333333254000e-02  0.0
 -2.000000030000e-01  -8.611111717000e-02  0.0
 -2.000000030000e-01  -1.088889018000e-01  0.0
 -1.750000045000e-01  -6.809523701500e-02  0.0
 -1.750000045000e-01  -9.087302164500e-02  0.0
 -1.500000060000e-01  -7.285714149000e-02  0.0
 -2.000000030000e-01  -6.333333254000e-02  0.0
 -1.750000045000e-01  -4.380952660000e-02  0.0
 -1.500000060000e-01  -2.428572066000e-02  0.0
 -2.000000030000e-01  -4.055555630500e-02  0.0
 -1.750000045000e-01  -2.103175036500e-02  0.0
 -2.000000030000e-01  -1.777778007000e-02  0.0
 -1.500000060000e-01  -2.428572066000e-02  0.0
 -1.500000060000e-01  -4.857143107500e-02  0.0
 -1.500000060000e-01  -7.285714149000e-02  0.0
 -1.281259023000e-01  -2.896608505500e-02  0.0
 -1.281259023000e-01  -5.325179547000e-02  0.0
 -1.062517986000e-01  -3.364644945000e-02  0.0
 -1.099999994000e-01   1.996667010000e-08  0.0
 -1.300000027000e-01  -1.214285034666e-02  0.0
 -1.500000060000e-01  -2.428572066000e-02  0.0
 -1.081258990000e-01  -1.682321474166e-02  0.0
 -1.281259023000e-01  -2.896608505500e-02  0.0
 -1.062517986000e-01  -3.364644945000e-02  0.0
 -1.500000060000e-01  -2.428572066000e-02  0.0
 -1.500000060000e-01   0.000000000000e+00  0.0
 -1.500000060000e-01   2.428572066000e-02  0.0
 -1.750000045000e-01  -2.103175036500e-02  0.0
 -1.750000045000e-01   3.253970295000e-03  0.0
 -2.000000030000e-01  -1.777778007000e-02  0.0
 -1.500000060000e-01  -7.285714149000e-02  0.0
 -1.226314045700e-01  -6.892856210000e-02  0.0
 -9.526280314000e-02  -6.499998271000e-02  0.0
 -1.281259023000e-01  -5.325179547000e-02  0.0
 -1.007573008700e-01  -4.932321608000e-02  0.0
 -1.062517986000e-01  -3.364644945000e-02  0.0
  3.499999940000e-01   1.400000006000e-01  0.0
  4.021931737500e-01   1.224999986500e-01  0.0
  4.543863535000e-01   1.049999967000e-01  0.0
  4.187500029500e-01   1.749999970000e-01  0.0
  4.709431827000e-01   1.574999950500e-01  0.0
  4.875000119000e-01   2.099999934000e-01  0.0
 -7.101409137000e-02  -4.349999130000e-02  0.0
 -8.313844725500e-02  -5.424998700500e-02  0.0
 -9.526280314000e-02  -6.499998271000e-02  0.0
 -6.449843011500e-02  -5.250913650000e-02  0.0
 -7.662278600000e-02  -6.325913220500e-02  0.0
 -5.798276886000e-02  -6.151828170000e-02  0.0
 -9.526280314000e-02  -6.499998271000e-02  0.0
 -1.226314045700e-01  -6.892856210000e-02  0.0
 -1.500000060000e-01  -7.285714149000e-02  0.0
 -1.051314026200e-01  -8.249999210500e-02  0.0
 -1.325000040500e-01  -8.642857149500e-02  0.0
 -1.150000021000e-01  -1.000000015000e-01  0.0
 -6.181925908000e-02  -1.656441018000e-02  0.0
 -7.051259093000e-02  -1.954082492500e-02  0.0
 -7.920592278000e-02  -2.251723967000e-02  0.0
 -5.862244405000e-02  -2.428220026000e-02  0.0
 -6.731577590000e-02  -2.725861500500e-02  0.0
 -5.542562902000e-02  -3.199999034000e-02  0.0
 -7.920592278000e-02  -2.251723967000e-02  0.0
 -9.272886069000e-02  -2.808184456000e-02  0.0
 -1.062517986000e-01  -3.364644945000e-02  0.0
 -7.511000707500e-02  -3.300861548500e-02  0.0
 -8.863294498500e-02  -3.857322037500e-02  0.0
 -7.101409137000e-02  -4.349999130000e-02  0.0
 -7.101409137000e-02  -4.349999130000e-02  0.0
 -6.321986019500e-02  -3.774999082000e-02  0.0
 -5.542562902000e-02  -3.199999034000e-02  0.0
 -7.511000707500e-02  -3.300861548500e-02  0.0
 -6.731577590000e-02  -2.725861500500e-02  0.0
 -7.920592278000e-02  -2.251723967000e-02  0.0
 -7.920592278000e-02  -2.251723967000e-02  0.0
 -9.460296109000e-02  -1.125860985166e-02  0.0
 -1.099999994000e-01   1.996667010000e-08  0.0
 -9.272886069000e-02  -2.808184456000e-02  0.0
 -1.081258990000e-01  -1.682321474166e-02  0.0
 -1.062517986000e-01  -3.364644945000e-02  0.0
 -7.778175920000e-02  -9.192386270000e-02  0.0
 -6.788226403000e-02  -7.672107220000e-02  0.0
 -5.798276886000e-02  -6.151828170000e-02  0.0
 -8.652228117000e-02  -7.846192270500e-02  0.0
 -7.662278600000e-02  -6.325913220500e-02  0.0
 -9.526280314000e-02  -6.499998271000e-02  0.0
 -7.101409137000e-02  -4.349999130000e-02  0.0
 -8.863294498500e-02  -3.857322037500e-02  0.0
 -1.062517986000e-01  -3.364644945000e-02  0.0
 -8.313844725500e-02  -5.424998700500e-02  0.0
 -1.007573008700e-01  -4.932321608000e-02  0.0
 -9.526280314000e-02  -6.499998271000e-02  0.0
 -7.778175920000e-02  -9.192386270000e-02  0.0
 -8.652228117000e-02  -7.846192270500e-02  0.0
 -9.526280314000e-02  -6.499998271000e-02  0.0
 -9.639088065000e-02  -9.596193210000e-02  0.0
 -1.051314026200e-01  -8.249999210500e-02  0.0
 -1.150000021000e-01  -1.000000015000e-01  0.0
[...]
POINT_DATA 2244
SCALARS field1 double 1
LOOKUP_TABLE default
  2.113631983414e-03 
  3.877793281749e-02 
  7.544223365157e-02 
  1.326398169053e-03 
  3.799069900313e-02 
  5.391643546929e-04 
  1.584929154868e-01 
  8.001810029507e-02 
  1.543285103315e-03 
  7.991918550402e-02 
  1.444370312266e-03 
  1.345455521218e-03 
  7.400843312950e-02 
  9.577276414885e-02 
  1.175370951682e-01 
  1.025407451757e-01 
  1.243050761951e-01 
  1.310730572219e-01 
  1.189884688431e-01 
  9.569531039147e-02 
  7.240215193983e-02 
  9.954674665114e-02 
  7.625358819950e-02 
  8.010502445918e-02 
  1.589785695921e-01 
  1.450679383659e-01 
  1.311573071397e-01 
  1.393216935363e-01 
  1.254110623101e-01 
  1.196648174805e-01 
  1.808666599868e-01 
  1.132877607728e-01 
  4.570886155878e-02 
  1.712831716239e-01 
  1.037042724099e-01 
  1.616996832611e-01 
  8.205229082076e-02 
  1.064921567546e-01 
  1.309320226884e-01 
  1.009889113534e-01 
  1.254287772872e-01 
  1.199255318860e-01 
  1.398564969123e-01 
  1.504462527066e-01 
  1.610360085009e-01 
  1.440895110463e-01 
  1.546792668406e-01 
  1.483225251804e-01 
  1.289172959018e-01 
  1.420744371438e-01 
  1.552315783858e-01 
  1.352865076930e-01 
  1.484436489350e-01 
  1.416557194841e-01 
  3.161925005819e-03 
  6.671209916951e-02 
  1.302622733332e-01 
  4.237081164366e-02 
  1.059209858074e-01 
  8.157969828150e-02 
  1.273326936926e-01 
  1.326421071671e-01 
  1.379515206416e-01 
  1.336873133084e-01 
  1.389967267829e-01 
  1.400419329242e-01 
  1.393518090514e-01 
  1.335151592323e-01 
  1.276785094133e-01 
  1.344373134792e-01 
  1.286006636601e-01 
  1.295228179070e-01 
  1.619412960170e-01 
  1.507443153941e-01 
  1.395473347712e-01 
  1.505741009051e-01 
  1.393771202822e-01 
  1.392069057931e-01 
  1.279421475744e-01 
  1.348439046924e-01 
  1.417456618104e-01 
  1.249652694183e-01 
  1.318670265363e-01 
  1.219883912622e-01 
  1.622156867660e-01 
  1.517071897546e-01 
  1.411986927432e-01 
  1.688611030977e-01 
  1.583526060863e-01 
  1.755065194294e-01 
  1.287338195980e-01 
  1.292686639605e-01 
  1.298035083230e-01 
  1.056455321674e-01 
  1.061803765298e-01 
  8.255724473670e-02 
  1.504712618578e-03 
  2.114600831148e-03 
  2.724489043718e-03 
  9.153490168386e-02 
  9.214478989643e-02 
  1.815650907491e-01 
  1.582606115116e-01 
  1.399123070005e-01 
  1.215640024895e-01 
  1.506332931473e-01 
  1.322849886363e-01 
  1.430059747831e-01 
  1.713269786927e-01 
  1.642778191890e-01 
  1.572286596852e-01 
  1.726422621319e-01 
  1.655931026281e-01 
  1.739575455710e-01 
  1.701253328267e-01 
  1.510948455743e-01 
  1.320643583219e-01 
  1.642768159440e-01 
  1.452463286916e-01 
  1.584282990613e-01 
  1.712083250750e-01 
  1.731282662762e-01 
  1.750482074774e-01 
  1.806533248399e-01 
  1.825732660412e-01 
  1.900983246049e-01 
  1.718425630073e-01 
  1.650359776593e-01 
  1.582293923112e-01 
  1.519985683226e-01 
  1.451919829746e-01 
  1.321545736380e-01 
  1.143091108667e-01 
  1.425399820274e-01 
  1.707708531881e-01 
  1.233380899302e-01 
  1.515689610909e-01 
  1.323670689936e-01 
  1.711584244787e-01 
  1.714054391057e-01 
  1.716524537326e-01 
  1.816356898959e-01 
  1.818827045228e-01 
  1.921129553130e-01 
  1.576153354276e-01 
  1.508054392836e-01 
  1.439955431397e-01 
  1.447644705830e-01 
  1.379545744390e-01 
  1.319136057384e-01 
  1.660266586364e-01 
  1.709848985564e-01 
  1.759431384765e-01 
  1.015438653872e-01 
  1.065021053073e-01 
  3.706107213807e-02 
  1.159711627409e-01 
  1.312879273242e-01 
  1.466046919076e-01 
  1.359159946679e-01 
  1.512327592512e-01 
  1.558608265948e-01 
  1.449761748032e-01 
  1.511948998896e-01 
  1.574136249761e-01 
  1.441434951888e-01 
  1.503622202752e-01 
  1.433108155743e-01 
  3.834229659993e-02 
  6.420350835947e-02 
  9.006472011900e-02 
  5.131318633841e-02 
  7.717439809795e-02 
  6.428407607690e-02 
  8.917126184786e-02 
  1.102563799657e-01 
  1.313414980836e-01 
  1.023398079466e-01 
  1.234249260645e-01 
  1.155083540453e-01 
  1.154694573169e-01 
  9.040279323468e-02 
  6.533612915243e-02 
  1.023630744785e-01 
  7.729641039628e-02 
  8.925669164013e-02 
  8.886867346559e-02 
  1.015645895153e-01 
  1.142605055649e-01 
  1.103642110981e-01 
  1.230601271478e-01 
  1.318597487306e-01 
  1.625390171114e-01 
  1.595609059915e-01 
  1.565827948715e-01 
  1.544670325729e-01 
  1.514889214530e-01 
  1.463950480345e-01 
  1.163921205034e-01 
  1.236664642554e-01 
  1.309408080074e-01 
  1.312690682204e-01 
  1.385434119724e-01 
  1.461460159374e-01 
  1.611735869394e-01 
  1.537164249871e-01 
  1.462592630349e-01 
  1.513458110861e-01 
  1.438886491338e-01 
  1.415180352327e-01 
  8.953167154338e-02 
  6.390754634149e-02 
  3.828342113961e-02 
  8.035494271973e-02 
  5.473081751785e-02 
  7.117821389608e-02 
  1.735583900896e-01 
  1.580636063225e-01 
  1.425688225553e-01 
  1.644487544289e-01 
  1.489539706618e-01 
  1.553391187682e-01 
  1.619622442377e-01 
  1.656573204738e-01 
  1.693523967098e-01 
  1.472049891806e-01 
  1.509000654167e-01 
  1.324477341236e-01 
  1.804995141581e-01 
  1.775321664606e-01 
  1.745648187631e-01 
  1.856548098326e-01 
  1.826874621351e-01 
  1.908101055070e-01 
  1.781953297340e-01 
  1.750118014516e-01 
  1.718282731693e-01 
  1.669436114788e-01 
  1.637600831965e-01 
  1.556918932237e-01 
  1.617740528386e-01 
  1.760947246398e-01 
  1.904153964410e-01 
  1.590930256207e-01 
  1.734136974219e-01 
  1.564119984029e-01 
  1.910471297768e-01 
  1.764011698186e-01 
  1.617552098604e-01 
  1.826704809020e-01 
  1.680245209438e-01 
  1.742938320273e-01 
  2.200400684388e-01 
  2.065596524958e-01 
  1.930792365528e-01 
  1.960349399275e-01 
  1.825545239846e-01 
  1.720298114163e-01 
  1.597405385817e-01 
  1.577029931713e-01 
  1.556654477609e-01 
  1.764824254707e-01 
  1.744448800603e-01 
  1.932243123597e-01 
  1.708247456782e-01 
  1.749338796412e-01 
  1.790430136042e-01 
  1.955544824759e-01 
  1.996636164389e-01 
  2.202842192735e-01 
  1.796660916648e-01 
  1.678085806975e-01 
  1.559510697303e-01 
  1.768664765117e-01 
  1.650089655445e-01 
  1.740668613587e-01 
  2.316635067942e-01 
  2.266569103721e-01 
  2.216503139501e-01 
  2.058654465446e-01 
  2.008588501226e-01 
  1.800673862951e-01 
  1.115631506807e-03 
  9.766827892845e-02 
  1.942209263501e-01 
  1.025451952246e-03 
  9.757809937389e-02 
  9.352723976860e-04 
  2.245086280517e-01 
  2.088842773890e-01 
  1.932599267264e-01 
  2.042534483167e-01 
  1.886290976541e-01 
  1.839982685817e-01 
  1.941417875792e-01 
  2.090599705436e-01 
  2.239781535081e-01 
  2.125374505645e-01 
  2.274556335290e-01 
  2.309331135499e-01 
  1.832206035858e-01 
  1.883175378340e-01 
  1.934144720822e-01 
  9.319246877511e-02 
  9.828940302327e-02 
  3.164333964379e-03 
  2.222074989153e-01 
  2.042787179992e-01 
  1.863499370831e-01 
  2.084082641033e-01 
  1.904794831872e-01 
  1.946090292914e-01 
  2.215981360360e-01 
  2.073272818652e-01 
  1.930564276944e-01 
  2.258981861275e-01 
  2.116273319568e-01 
  2.301982362191e-01 
  2.301367289692e-01 
  2.055382993004e-01 
  1.809398696315e-01 
  2.092088085502e-01 
  1.846103788813e-01 
  1.882808881312e-01 
  1.742944472779e-01 
  1.747206492091e-01 
  1.751468511402e-01 
  1.824511691973e-01 
  1.828773711285e-01 
  1.906078911167e-01 
  1.590003238665e-01 
  1.772528278357e-01 
  1.955053318050e-01 
  1.722657430879e-01 
  1.905182470571e-01 
  1.855311623092e-01 
 -9.795606650361e-04 
  3.306337383622e-02 
  6.710630833748e-02 
  1.242404877633e-03 
  3.528533937889e-02 
  3.464370420303e-03 
  6.627989826770e-02 
  9.036087940359e-02 
  1.144418605395e-01 
  9.204360550070e-02 
  1.161245866366e-01 
  1.178073127337e-01 
  1.518080469488e-01 
  7.909479170611e-02 
  6.381536463386e-03 
  7.536814675043e-02 
  2.654891507711e-03 
 -1.071753447965e-03 
 -1.668969774080e-03 
  5.719730375838e-03 
  1.310843052576e-02 
  1.809771620834e-02 
  2.548641635826e-02 
  3.786440219076e-02 
  3.383014967180e-04 
 -1.177532503748e-03 
 -2.693366504214e-03 
  3.151936930737e-02 
  3.000353530690e-02 
  6.270043711801e-02 
  1.411358067007e-01 
  7.198782116614e-02 
  2.839835631559e-03 
  1.157469035812e-01 
  4.659891804664e-02 
  9.035800046173e-02 
  6.684368087979e-02 
  9.336336508467e-02 
  1.198830492895e-01 
  3.569930441583e-02 
  6.221898862071e-02 
  4.554927951875e-03 
 -3.186157752731e-03 
  1.739827198504e-02 
  3.798270172281e-02 
  2.973641707666e-02 
  5.032084681443e-02 
  6.265899190606e-02 
  1.448709190221e-03 
  1.528240880520e-03 
  1.607772570818e-03 
  9.337620357664e-02 
  9.345573526694e-02 
  1.853036979631e-01 
  1.956273776044e-03 
  9.880841638444e-02 
  1.956605589928e-01 
  1.901151476631e-03 
  9.875329408502e-02 
  1.846029177218e-03 
  1.840751901829e-01 
  9.611799448517e-02 
  8.160798787473e-03 
  1.728077345682e-01 
  8.485053887051e-02 
  1.615402789536e-01 
  8.879503648079e-04 
  6.238880721722e-02 
  1.238896640696e-01 
  2.283330019233e-03 
  6.378418687164e-02 
  3.678709673658e-03 
  3.622265932605e-03 
  8.137477340644e-02 
  1.591272808803e-01 
  9.381952399397e-02 
  1.715720314678e-01 
  1.840167820553e-01 
  1.750677747489e-01 
  9.087678860811e-02 
  6.685802467274e-03 
  1.756166579068e-01 
  9.142567176597e-02 
  1.761655410647e-01 
  1.329590349529e-01 
  6.716926899034e-02 
  1.379503027803e-03 
  6.774880375801e-02 
  1.959037795472e-03 
  2.538572563142e-03 
  6.004120547184e-03 
  6.409683002429e-02 
  1.221895395014e-01 
  8.210715066785e-02 
  1.401998601450e-01 
  1.582101807885e-01 
  1.195917373367e-01 
  1.379999634554e-01 
  1.564081895741e-01 
  1.392342085922e-01 
  1.576424347109e-01 
  1.588766798476e-01 
  1.588203576196e-01 
  8.267422067727e-02 
  6.528083734967e-03 
  1.657954471236e-01 
  8.964931018134e-02 
  1.727705366277e-01 
  2.290068980195e-01 
  2.086003046204e-01 
  1.881937112214e-01 
  2.074837135830e-01 
  1.870771201839e-01 
  1.859605291465e-01 
  1.181448341561e-01 
  1.161825283449e-01 
  1.142202225336e-01 
  1.373603237125e-01 
  1.353980179012e-01 
  1.565758132688e-01 
  9.309368506411e-04 
  2.496246655263e-03 
  4.061556459885e-03 
  8.133001542128e-02 
  8.289532522590e-02 
  1.617290939919e-01 
  1.169025077653e-02 
  5.481587940812e-03 
 -7.270748949041e-04 
  5.201251307305e-03 
 -1.007411528411e-03 
 -1.287748161919e-03 
  1.684460904747e-01 
  1.691306330046e-01 
  1.698151755344e-01 
  1.499632974990e-01 
  1.506478400288e-01 
  1.314805045232e-01 
  1.737470019859e-01 
  1.815342152028e-01 
  1.893214284196e-01 
  1.824298172303e-01 
  1.902170304472e-01 
  1.911126324747e-01 
  1.884293732401e-01 
  1.790001007480e-01 
  1.695708282558e-01 
  1.795524785613e-01 
  1.701232060692e-01 
  1.706755838826e-01 
  1.681231821570e-01 
  1.785071857028e-01 
  1.888911892485e-01 
  1.694661747484e-01 
  1.798501782941e-01 
  1.708091673397e-01 
  1.704456521183e-01 
  1.705481501980e-01 
  1.706506482776e-01 
  1.514108626473e-01 
  1.515133607270e-01 
  1.323760731763e-01 
  2.360277873405e-02 
  1.190641398467e-02 
  2.100492352947e-04 
  9.963978331682e-02 
  8.794341856745e-02 
  1.756767878996e-01 
  1.696572169305e-01 
  1.422502840917e-01 
  1.148433512530e-01 
  1.506011999496e-01 
  1.231942671109e-01 
  1.315451829688e-01 
  1.694686192028e-01 
  1.696811494413e-01 
  1.698936796798e-01 
  1.416785693704e-01 
  1.418910996089e-01 
  1.138885195380e-01 
  8.751096336054e-02 
  1.091728760699e-01 
  1.308347887792e-01 
  1.012291791421e-01 
  1.228910918514e-01 
  1.149473949237e-01 
  1.231890378935e-01 
  1.051189462103e-01 
  8.704885452711e-02 
  9.766226212214e-02 
  7.959217043896e-02 
  7.213548635081e-02 
  1.294308651813e-01 
  1.254857883581e-01 
  1.215407115348e-01 
  1.355856305996e-01 
  1.316405537763e-01 
  1.417403960179e-01 
  1.211262589775e-01 
  1.253597690074e-01 
  1.295932790373e-01 
  1.044672069612e-01 
  1.087007169910e-01 
  8.780815494479e-02 
  1.606838629034e-01 
  1.510874729157e-01 
  1.414910829281e-01 
  1.614150344295e-01 
  1.518186444419e-01 
  1.621462059557e-01 
  1.310465833464e-01 
  1.358859894752e-01 
  1.407253956040e-01 
  1.496599751115e-01 
  1.544993812403e-01 
  1.682733668766e-01 
  8.745713471014e-02 
  7.915329844063e-02 
  7.084946217112e-02 
  6.238166504560e-02 
  5.407782877609e-02 
  3.730619538106e-02 
  8.713856776145e-02 
  1.011527404695e-01 
  1.151669131774e-01 
  7.936715840864e-02 
  9.338133111664e-02 
  7.159574905583e-02 
  1.146609446878e-01 
  1.016112235848e-01 
  8.856150248172e-02 
  9.325164377285e-02 
  8.020192266982e-02 
  7.184234285791e-02 
  1.680585103381e-01 
  1.548114545990e-01 
  1.415643988599e-01 
  1.585338718429e-01 
  1.452868161038e-01 
  1.490092333476e-01 
  1.308617809111e-01 
  1.267125347442e-01 
  1.225632885773e-01 
  1.024993544531e-01 
  9.835010828627e-02 
  7.413692799521e-02 
  1.314227913384e-01 
  1.509792921710e-01 
  1.705357930036e-01 
  1.278424622031e-01 
  1.473989630357e-01 
  1.242621330678e-01 
  7.325729782538e-02 
  8.150735825987e-02 
  8.975741869437e-02 
  3.671440588033e-02 
  4.496446631483e-02 
  1.715139352881e-04 
  9.155258792260e-02 
  8.214913237570e-02 
  7.274567682880e-02 
  1.079473304798e-01 
  9.854387493294e-02 
  1.243420730371e-01 
  1.480988523598e-01 
  7.668389865299e-02 
  5.268944946130e-03 
  7.398390993692e-02 
  2.568956230058e-03 
 -1.310324860137e-04 
  1.626630625326e-02 
  8.866252898643e-03 
  1.466199544023e-03 
  9.653186122336e-02 
  8.913180786874e-02 
  1.767974161935e-01 
  1.261249826929e-01 
  1.300165627836e-01 
  1.339081428743e-01 
  1.092078871313e-01 
  1.130994672219e-01 
  9.229079156960e-02 
  1.616368737493e-01 
  7.969027847885e-02 
 -2.256316791597e-03 
  8.983999393155e-02 
  7.893398661104e-03 
  1.804311411381e-02 
  1.452275769592e-01 
  1.522102150878e-01 
  1.591928532165e-01 
  1.450883202649e-01 
  1.520709583935e-01 
  1.449490635706e-01 
  1.588108472809e-01 
  1.530577700287e-01 
  1.473046927766e-01 
  1.507557616532e-01 
  1.450026844011e-01 
  1.427006760256e-01 
  1.295703995030e-01 
  1.383733813187e-01 
  1.471763631345e-01 
  1.357565215159e-01 
  1.445595033316e-01 
  1.419426435288e-01 
  1.441151054966e-01 
  1.375466616834e-01 
  1.309782178703e-01 
  1.449699332667e-01 
  1.384014894536e-01 
  1.458247610369e-01 
  1.442545916843e-01 
  1.465917533045e-01 
  1.489289149247e-01 
  1.549675526145e-01 
  1.573047142347e-01 
  1.656805135447e-01 
  1.321751329250e-01 
  1.355817688344e-01 
  1.389884047438e-01 
  1.119187399632e-01 
  1.153253758726e-01 
  9.166234700139e-02 
  1.593799670285e-01 
  1.672192168015e-01 
  1.750584665745e-01 
  1.531642839932e-01 
  1.610035337662e-01 
  1.469486009579e-01 
  1.479097682520e-01 
  1.398766466926e-01 
  1.318435251332e-01 
  1.378954033531e-01 
  1.298622817937e-01 
  1.278810384542e-01 
  1.690765807630e-01 
  1.590526334966e-01 
  1.490286862302e-01 
  1.480517864812e-01 
  1.380278392148e-01 
  1.270269921994e-01 
  1.469682732437e-01 
  1.556427474214e-01 
  1.643172215992e-01 
  7.796343376582e-02 
  8.663790794355e-02 
  8.958594287940e-03 
  1.410916745573e-01 
  1.317890101497e-01 
  1.224863457421e-01 
  1.514581857288e-01 
  1.421555213212e-01 
  1.618246969003e-01 
  4.970370347682e-02 
  1.156513947613e-01 
  1.815990860458e-01 
  1.009510985589e-01 
  1.668987898434e-01 
  1.521984936411e-01 
  1.263014621921e-02 
  5.979781190325e-03 
 -6.705838385546e-04 
  2.523529631876e-02 
  1.858493128988e-02 
  3.784044641832e-02 
  1.153422616576e-02 
  5.047687075914e-03 
 -1.438852013932e-03 
  5.596267545803e-03 
 -8.902715440437e-04 
 -3.416910741551e-04 
  3.836461751333e-02 
  1.962287681618e-02 
  8.811361190268e-04 
  5.435129549422e-02 
  3.560955479707e-02 
  7.033797347511e-02 
  1.088041728733e-01 
  8.998827839847e-02 
  7.117238392366e-02 
  5.397226728775e-02 
  3.515637281294e-02 
 -8.596382977844e-04 
  1.118241404259e-01 
  1.374705610116e-01 
  1.631169815973e-01 
  1.177391076983e-01 
  1.433855282841e-01 
  1.236540749708e-01 
  1.105983651557e-01 
  1.175901360960e-01 
  1.245819070362e-01 
  9.114776547571e-02 
  9.813953641595e-02 
  7.169716579570e-02 
  8.843414020430e-04 
  1.967134698661e-02 
  3.845835257117e-02 
  1.250889106107e-04 
  1.891209449517e-02 
 -6.341635808216e-04 
  8.758164954589e-02 
  6.270080029099e-02 
  3.781995103609e-02 
  7.940960527064e-02 
  5.452875601574e-02 
  7.123756099539e-02 
 -6.940663213370e-04 
  2.712117820710e-04 
  1.236489885479e-03 
  5.420618135586e-02 
  5.517145945927e-02 
  1.091064290331e-01 
  1.789266043780e-01 
  9.247017702252e-02 
  6.013749667042e-03 
  1.704106238639e-01 
  8.395419650846e-02 
  1.618946433499e-01 
  1.560736351068e-01 
  1.185566793368e-01 
  8.103972356687e-02 
  1.564538682021e-01 
  1.189369124321e-01 
  1.568341012974e-01 
  7.400662065072e-02 
  3.811106848711e-02 
  2.215516323491e-03 
  7.614629180173e-02 
  4.025073963811e-02 
  7.828596295274e-02 
  1.647695022280e-01 
  8.284492133200e-02 
  9.203404360585e-04 
  8.437228567663e-02 
  2.447704780684e-03 
  3.975069125309e-03 
  1.603885266385e-01 
  7.965529352750e-02 
 -1.077939583531e-03 
  8.149433491509e-02 
  7.611018040565e-04 
  2.600143191644e-03 
  1.524680168306e-01 
  7.869503324675e-02 
  4.922049662887e-03 
  1.418102244801e-01 
  6.803724089626e-02 
  1.311524321296e-01 
  1.089945229403e-01 
  5.449315531490e-02 
 -8.212310527299e-06 
  1.333051176726e-01 
  7.880375004719e-02 
  1.576157124049e-01 
  1.404032466214e-01 
  1.491128547693e-01 
  1.578224629172e-01 
  1.487051100722e-01 
  1.574147182200e-01 
  1.570069735229e-01 
  1.903081994849e-01 
  9.606748222368e-02 
  1.826764962415e-03 
  9.640210344564e-02 
  2.161386184371e-03 
  2.496007406328e-03 
  1.622748779503e-01 
  1.605383663146e-01 
  1.588018546789e-01 
  1.785873808568e-01 
  1.768508692212e-01 
  1.948998837634e-01 
  1.572016660106e-01 
  1.603934543693e-01 
  1.635852427280e-01 
  1.338754444610e-01 
  1.370672328197e-01 
  1.105492229113e-01 
  1.761357582776e-01 
  1.690396913663e-01 
  1.619436244550e-01 
  1.743230242519e-01 
  1.672269573406e-01 
  1.725102902262e-01 
  1.637298628018e-01 
  1.566225394127e-01 
  1.495152160236e-01 
  1.682587772815e-01 
  1.611514538924e-01 
  1.727876917611e-01 
  1.751131689847e-01 
  1.674434752523e-01 
  1.597737815198e-01 
  1.846699103385e-01 
  1.770002166060e-01 
  1.942266516922e-01 
  1.950933371090e-01 
  2.090453305630e-01 
  2.229973240169e-01 
  1.845878982969e-01 
  1.985398917509e-01 
  1.740824594848e-01 
  1.949755865451e-01 
  1.775427304944e-01 
  1.601098744437e-01 
  1.910592219083e-01 
  1.736263658576e-01 
  1.871428572716e-01 
  1.623353901050e-01 
  1.779688355556e-01 
  1.936022810063e-01 
  1.612161022932e-01 
  1.768495477439e-01 
  1.600968144815e-01 
  1.869471649101e-01 
  1.893420215609e-01 
  1.917368782117e-01 
  2.063305840046e-01 
  2.087254406554e-01 
  2.257140030991e-01 
  1.874136279448e-01 
  1.751357589968e-01 
  1.628578900488e-01 
  9.674409838933e-02 
  8.446622944136e-02 
  6.074568833863e-03 
  1.804914781383e-01 
  2.022918568155e-01 
  2.240922354926e-01 
  2.047423371081e-01 
  2.265427157852e-01 
  2.289931960778e-01 
  2.236214475784e-01 
  2.013759590591e-01 
  1.791304705398e-01 
  1.982367093155e-01 
  1.759912207962e-01 
  1.728519710526e-01 
  1.827670494347e-01 
  1.808314823467e-01 
  1.788959152587e-01 
  1.880397125600e-01 
  1.861041454720e-01 
  1.933123756854e-01 
  1.774044555735e-01 
  1.799879807890e-01 
  1.825715060046e-01 
  1.690980370331e-01 
  1.716815622487e-01 
  1.607916184927e-01 
  2.276924575896e-01 
  2.265177338047e-01 
  2.253430100198e-01 
  2.099198014858e-01 
  2.087450777009e-01 
  1.921471453820e-01 
  1.874192460194e-01 
  2.056965779996e-01 
  2.239739099799e-01 
  1.909582998642e-01 
  2.092356318445e-01 
  1.944973537090e-01 
  5.346357289095e-03 
  9.817752843230e-02 
  1.910086995755e-01 
  9.687346186141e-02 
  1.897046330046e-01 
  1.884005664337e-01 