# vtk DataFile Version 2
NuDG++ 2D simulation
ASCII
DATASET UNSTRUCTURED_GRID

POINTS 2244 double
 -1.656250060000e-01  -2.000000030000e-01  0.0
 -1.828125045000e-01  -1.772221997500e-01  0.0
 -2.000000030000e-01  -1.544443965000e-01  0.0
 -1.828125045000e-01  -2.000000030000e-01  0.0
 -2.000000030000e-01  -1.772221997500e-01  0.0
 -2.000000030000e-01  -2.000000030000e-01  0.0
 -6.428571790000e-02  -1.700000018000e-01  0.0
 -8.058035746000e-02  -1.850000024000e-01  0.0
 -9.687499702000e-02  -2.000000030000e-01  0.0
 -6.339285895000e-02  -1.850000024000e-01  0.0
 -7.968749851000e-02  -2.000000030000e-01  0.0
 -6.250000000000e-02  -2.000000030000e-01  0.0
 -2.000000030000e-01  -1.544443965000e-01  0.0
 -1.750000045000e-01  -1.379364989500e-01  0.0
 -1.500000060000e-01  -1.214286014000e-01  0.0
 -2.000000030000e-01  -1.316666491500e-01  0.0
 -1.750000045000e-01  -1.151587516000e-01  0.0
 -2.000000030000e-01  -1.088889018000e-01  0.0
 -1.500000060000e-01  -1.214286014000e-01  0.0
 -1.750000045000e-01  -1.379364989500e-01  0.0
 -2.000000030000e-01  -1.544443965000e-01  0.0
 -1.500000060000e-01  -1.457143016000e-01  0.0
 -1.750000045000e-01  -1.622221991500e-01  0.0
 -1.500000060000e-01  -1.700000018000e-01  0.0
 -1.500000060000e-01  -7.285714149000e-02  0.0
 -1.750000045000e-01  -9.087302164500e-02  0.0
 -2.000000030000e-01  -1.088889018000e-01  0.0
 -1.500000060000e-01  -9.714287144500e-02  0.0
 -1.750000045000e-01  -1.151587516000e-01  0.0
 -1.500000060000e-01  -1.214286014000e-01  0.0
  1.832975030000e+00  -4.625000060000e-02  0.0
  1.853987515000e+00  -1.231250018000e-01  0.0
  1.875000000000e+00  -2.000000030000e-01  0.0
  1.916487515000e+00  -7.187499851000e-02  0.0
  1.937500000000e+00  -1.487499997100e-01  0.0
  2.000000000000e+00  -9.749999642000e-02  0.0
 -1.500000060000e-01  -1.700000018000e-01  0.0
 -1.360000037000e-01  -1.525000036000e-01  0.0
 -1.220000014000e-01  -1.350000054000e-01  0.0
 -1.500000060000e-01  -1.457143016000e-01  0.0
 -1.360000037000e-01  -1.282143034000e-01  0.0
 -1.500000060000e-01  -1.214286014000e-01  0.0
  2.849999964000e-01  -2.333333530000e-02  0.0
  2.837499976000e-01  -8.166666795000e-02  0.0
  2.824999988000e-01  -1.400000006000e-01  0.0
  3.174999952000e-01  -4.666666780000e-02  0.0
  3.162499964000e-01  -1.050000004500e-01  0.0
  3.499999940000e-01  -7.000000030000e-02  0.0
 -1.071429029000e-01  -1.700000018000e-01  0.0
 -8.571431040000e-02  -1.700000018000e-01  0.0
 -6.428571790000e-02  -1.700000018000e-01  0.0
 -9.857145324000e-02  -1.525000036000e-01  0.0
 -7.714286074000e-02  -1.525000036000e-01  0.0
 -9.000000358000e-02  -1.350000054000e-01  0.0
 -1.312499940000e-01  -2.000000030000e-01  0.0
 -1.191964484500e-01  -1.850000024000e-01  0.0
 -1.071429029000e-01  -1.700000018000e-01  0.0
 -1.406250000000e-01  -1.850000024000e-01  0.0
 -1.285714544500e-01  -1.700000018000e-01  0.0
 -1.500000060000e-01  -1.700000018000e-01  0.0
 -1.220000014000e-01  -1.350000054000e-01  0.0
 -1.060000024900e-01  -1.350000054000e-01  0.0
 -9.000000358000e-02  -1.350000054000e-01  0.0
 -1.185000017500e-01  -1.175000034500e-01  0.0
 -1.025000028400e-01  -1.175000034500e-01  0.0
 -1.150000021000e-01  -1.000000015000e-01  0.0
 -9.000000358000e-02  -1.350000054000e-01  0.0
 -1.060000024900e-01  -1.350000054000e-01  0.0
 -1.220000014000e-01  -1.350000054000e-01  0.0
 -9.857145324000e-02  -1.525000036000e-01  0.0
 -1.145714521500e-01  -1.525000036000e-01  0.0
 -1.071429029000e-01  -1.700000018000e-01  0.0
 -7.778175920000e-02  -9.192386270000e-02  0.0
 -9.639088065000e-02  -9.596193210000e-02  0.0
 -1.150000021000e-01  -1.000000015000e-01  0.0
 -8.389088139000e-02  -1.134619340500e-01  0.0
 -1.025000028400e-01  -1.175000034500e-01  0.0
 -9.000000358000e-02  -1.350000054000e-01  0.0
 -1.220000014000e-01  -1.350000054000e-01  0.0
 -1.185000017500e-01  -1.175000034500e-01  0.0
 -1.150000021000e-01  -1.000000015000e-01  0.0
 -1.360000037000e-01  -1.282143034000e-01  0.0
 -1.325000040500e-01  -1.107143014500e-01  0.0
 -1.500000060000e-01  -1.214286014000e-01  0.0
 -7.778175920000e-02  -9.192386270000e-02  0.0
 -8.389088139000e-02  -1.134619340500e-01  0.0
 -9.000000358000e-02  -1.350000054000e-01  0.0
 -6.639088876500e-02  -1.022535823500e-01  0.0
 -7.250001095500e-02  -1.237916537000e-01  0.0
 -5.500001833000e-02  -1.125833020000e-01  0.0
 -1.071429029000e-01  -1.700000018000e-01  0.0
 -1.145714521500e-01  -1.525000036000e-01  0.0
 -1.220000014000e-01  -1.350000054000e-01  0.0
 -1.285714544500e-01  -1.700000018000e-01  0.0
 -1.360000037000e-01  -1.525000036000e-01  0.0
 -1.500000060000e-01  -1.700000018000e-01  0.0
  6.250000093000e-03  -2.000000030000e-01  0.0
  4.062500153650e-02  -2.000000030000e-01  0.0
  7.500000298000e-02  -2.000000030000e-01  0.0
  1.383928512150e-02  -1.850000024000e-01  0.0
  4.821428656500e-02  -1.850000024000e-01  0.0
  2.142857015000e-02  -1.700000018000e-01  0.0
 -1.500000060000e-01  -7.285714149000e-02  0.0
 -1.500000060000e-01  -9.714287144500e-02  0.0
 -1.500000060000e-01  -1.214286014000e-01  0.0
 -1.325000040500e-01  -8.642857149500e-02  0.0
 -1.325000040500e-01  -1.107143014500e-01  0.0
 -1.150000021000e-01  -1.000000015000e-01  0.0
 -2.000000030000e-01  -6.333333254000e-02  0.0
 -1.750000045000e-01  -6.809523701500e-02  0.0
 -1.500000060000e-01  -7.285714149000e-02  0.0
 -1.750000045000e-01  -4.380952660000e-02  0.0
 -1.500000060000e-01  -4.857143107500e-02  0.0
 -1.500000060000e-01  -2.428572066000e-02  0.0
 -2.000000030000e-01  -6.333333254000e-02  0.0
 -2.000000030000e-01  -8.611111717000e-02  0.0
 -2.000000030000e-01  -1.088889018000e-01  0.0
 -1.750000045000e-01  -6.809523701500e-02  0.0
 -1.750000045000e-01  -9.087302164500e-02  0.0
 -1.500000060000e-01  -7.285714149000e-02  0.0
 -2.000000030000e-01  -6.333333254000e-02  0.0
 -1.750000045000e-01  -4.380952660000e-02  0.0
 -1.500000060000e-01  -2.428572066000e-02  0.0
 -2.000000030000e-01  -4.055555630500e-02  0.0
 -1.750000045000e-01  -2.103175036500e-02  0.0
 -2.000000030000e-01  -1.777778007000e-02  0.0
 -1.500000060000e-01  -2.428572066000e-02  0.0
 -1.500000060000e-01  -4.857143107500e-02  0.0
 -1.500000060000e-01  -7.285714149000e-02  0.0
 -1.281259023000e-01  -2.896608505500e-02  0.0
 -1.281259023000e-01  -5.325179547000e-02  0.0
 -1.062517986000e-01  -3.364644945000e-02  0.0
 -1.099999994000e-01   1.996667010000e-08  0.0
 -1.300000027000e-01  -1.214285034666e-02  0.0
 -1.500000060000e-01  -2.428572066000e-02  0.0
 -1.081258990000e-01  -1.682321474166e-02  0.0
 -1.281259023000e-01  -2.896608505500e-02  0.0
 -1.062517986000e-01  -3.364644945000e-02  0.0
 -1.500000060000e-01  -2.428572066000e-02  0.0
 -1.500000060000e-01   0.000000000000e+00  0.0
 -1.500000060000e-01   2.428572066000e-02  0.0
 -1.750000045000e-01  -2.103175036500e-02  0.0
 -1.750000045000e-01   3.253970295000e-03  0.0
 -2.000000030000e-01  -1.777778007000e-02  0.0
 -1.500000060000e-01  -7.285714149000e-02  0.0
 -1.226314045700e-01  -6.892856210000e-02  0.0
 -9.526280314000e-02  -6.499998271000e-02  0.0
 -1.281259023000e-01  -5.325179547000e-02  0.0
 -1.007573008700e-01  -4.932321608000e-02  0.0
 -1.062517986000e-01  -3.364644945000e-02  0.0
  3.499999940000e-01   1.400000006000e-01  0.0
  4.021931737500e-01   1.224999986500e-01  0.0
  4.543863535000e-01   1.049999967000e-01  0.0
  4.187500029500e-01   1.749999970000e-01  0.0
  4.709431827000e-01   1.574999950500e-01  0.0
  4.875000119000e-01   2.099999934000e-01  0.0
 -7.101409137000e-02  -4.349999130000e-02  0.0
 -8.313844725500e-02  -5.424998700500e-02  0.0
 -9.526280314000e-02  -6.499998271000e-02  0.0
 -6.449843011500e-02  -5.250913650000e-02  0.0
 -7.662278600000e-02  -6.325913220500e-02  0.0
 -5.798276886000e-02  -6.151828170000e-02  0.0
 -9.526280314000e-02  -6.499998271000e-02  0.0
 -1.226314045700e-01  -6.892856210000e-02  0.0
 -1.500000060000e-01  -7.285714149000e-02  0.0
 -1.051314026200e-01  -8.249999210500e-02  0.0
 -1.325000040500e-01  -8.642857149500e-02  0.0
 -1.150000021000e-01  -1.000000015000e-01  0.0
 -6.181925908000e-02  -1.656441018000e-02  0.0
 -7.051259093000e-02  -1.954082492500e-02  0.0
 -7.920592278000e-02  -2.251723967000e-02  0.0
 -5.862244405000e-02  -2.428220026000e-02  0.0
 -6.731577590000e-02  -2.725861500500e-02  0.0
 -5.542562902000e-02  -3.199999034000e-02  0.0
 -7.920592278000e-02  -2.251723967000e-02  0.0
 -9.272886069000e-02  -2.808184456000e-02  0.0
 -1.062517986000e-01  -3.364644945000e-02  0.0
 -7.511000707500e-02  -3.300861548500e-02  0.0
 -8.863294498500e-02  -3.857322037500e-02  0.0
 -7.101409137000e-02  -4.349999130000e-02  0.0
 -7.101409137000e-02  -4.349999130000e-02  0.0
 -6.321986019500e-02  -3.774999082000e-02  0.0
 -5.542562902000e-02  -3.199999034000e-02  0.0
 -7.511000707500e-02  -3.300861548500e-02  0.0
 -6.731577590000e-02  -2.725861500500e-02  0.0
 -7.920592278000e-02  -2.251723967000e-02  0.0
 -7.920592278000e-02  -2.251723967000e-02  0.0
 -9.460296109000e-02  -1.125860985166e-02  0.0
 -1.099999994000e-01   1.996667010000e-08  0.0
 -9.272886069000e-02  -2.808184456000e-02  0.0
 -1.081258990000e-01  -1.682321474166e-02  0.0
 -1.062517986000e-01  -3.364644945000e-02  0.0
 -7.778175920000e-02  -9.192386270000e-02  0.0
 -6.788226403000e-02  -7.672107220000e-02  0.0
 -5.798276886000e-02  -6.151828170000e-02  0.0
 -8.652228117000e-02  -7.846192270500e-02  0.0
 -7.662278600000e-02  -6.325913220500e-02  0.0
 -9.526280314000e-02  -6.499998271000e-02  0.0
 -7.101409137000e-02  -4.349999130000e-02  0.0
 -8.863294498500e-02  -3.857322037500e-02  0.0
 -1.062517986000e-01  -3.364644945000e-02  0.0
 -8.313844725500e-02  -5.424998700500e-02  0.0
 -1.007573008700e-01  -4.932321608000e-02  0.0
 -9.526280314000e-02  -6.499998271000e-02  0.0
 -7.778175920000e-02  -9.192386270000e-02  0.0
 -8.652228117000e-02  -7.846192270500e-02  0.0
 -9.526280314000e-02  -6.499998271000e-02  0.0
 -9.639088065000e-02  -9.596193210000e-02  0.0
 -1.051314026200e-01  -8.249999210500e-02  0.0
 -1.150000021000e-01  -1.000000015000e-01  0.0
[...]
POINT_DATA 2244
SCALARS field1 double 1
LOOKUP_TABLE default
  3.011851914546e-03 
  1.320138252916e-01 
  2.610157986686e-01 
  1.313299978995e-03 
  1.303152733560e-01 
 -3.852519565561e-04 
  3.683604935665e-01 
  1.827926335708e-01 
 -2.775226424912e-03 
  1.853092701743e-01 
 -2.585898214332e-04 
  2.258046782046e-03 
  2.582871444824e-01 
  3.340549596942e-01 
  4.098227749060e-01 
  3.561910337937e-01 
  4.319588490055e-01 
  4.540949231050e-01 
  4.106426708157e-01 
  3.343828313577e-01 
  2.581229918996e-01 
  3.077677005915e-01 
  2.315078611334e-01 
  2.048927303673e-01 
  5.645518933585e-01 
  5.095695532458e-01 
  4.545872131331e-01 
  4.897601038146e-01 
  4.347777637019e-01 
  4.149683142707e-01 
  1.854789270140e-02 
 -9.136017331974e-02 
 -2.012682393409e-01 
  2.656439634758e-03 
 -1.072516263864e-01 
 -1.323501343188e-02 
  2.057538431184e-01 
  2.953978025798e-01 
  3.850417620413e-01 
  3.086199994992e-01 
  3.982639589606e-01 
  4.114861558800e-01 
  5.532238785332e-01 
  5.178361848225e-01 
  4.824484911118e-01 
  5.565965841060e-01 
  5.212088903953e-01 
  5.599692896788e-01 
  2.734994872022e-01 
  3.215535710292e-01 
  3.696076548563e-01 
  3.539630712904e-01 
  4.020171551175e-01 
  4.344266553786e-01 
 -3.638530057441e-04 
  1.370789721543e-01 
  2.745217973143e-01 
  9.944959908410e-02 
  2.368924242441e-01 
  1.992630511739e-01 
  3.805295107488e-01 
  4.067619549911e-01 
  4.329943992334e-01 
  4.521336285284e-01 
  4.783660727707e-01 
  5.237377463080e-01 
  4.308244406885e-01 
  4.061307123050e-01 
  3.814369839215e-01 
  3.521189144348e-01 
  3.274251860513e-01 
  2.734133881811e-01 
  5.808509473242e-01 
  5.525320607446e-01 
  5.242131741650e-01 
  5.089668900447e-01 
  4.806480034651e-01 
  4.370828327652e-01 
  3.832217936062e-01 
  4.526830617158e-01 
  5.221443298254e-01 
  3.976489047321e-01 
  4.671101728417e-01 
  4.120760158581e-01 
  5.811414938046e-01 
  5.082966051429e-01 
  4.354517164811e-01 
  5.841333872993e-01 
  5.112884986376e-01 
  5.871252807940e-01 
  2.726897659149e-01 
  3.288949410004e-01 
  3.851001160859e-01 
  2.383052289672e-01 
  2.945104040527e-01 
  2.039206920194e-01 
  1.583816205915e-03 
  4.394651969859e-03 
  7.205487733802e-03 
  2.664834100896e-01 
  2.692942458536e-01 
  5.313830039733e-01 
  5.642544048565e-01 
  4.884783773723e-01 
  4.127023498880e-01 
  5.427027849000e-01 
  4.669267574158e-01 
  5.211511649436e-01 
  5.854852842630e-01 
  5.729634015955e-01 
  5.604415189279e-01 
  6.017646469757e-01 
  5.892427643081e-01 
  6.180440096883e-01 
  5.839238241107e-01 
  5.192538262514e-01 
  4.545838283921e-01 
  5.726702388667e-01 
  5.080002410074e-01 
  5.614166536227e-01 
  5.872366435993e-01 
  6.028607587565e-01 
  6.184848739137e-01 
  6.193279689840e-01 
  6.349520841412e-01 
  6.514192943688e-01 
  6.184424630345e-01 
  5.921353957208e-01 
  5.658283284070e-01 
  5.807652810810e-01 
  5.544582137673e-01 
  5.430880991275e-01 
  5.150235665011e-01 
  5.669779942345e-01 
  6.189324219680e-01 
  5.250893489094e-01 
  5.770437766428e-01 
  5.351551313177e-01 
  6.125421597388e-01 
  6.208268884313e-01 
  6.291116171239e-01 
  6.324167875118e-01 
  6.407015162043e-01 
  6.522914152848e-01 
  5.648543474041e-01 
  5.521697466438e-01 
  5.394851458835e-01 
  5.528673859528e-01 
  5.401827851925e-01 
  5.408804245014e-01 
  4.804029799687e-01 
  5.273230649519e-01 
  5.742431499351e-01 
  2.664163664837e-01 
  3.133364514669e-01 
  5.242975299874e-02 
  5.048852364400e-01 
  5.257660500438e-01 
  5.466468636477e-01 
  5.618790290663e-01 
  5.827598426701e-01 
  6.188728216926e-01 
  5.426346820546e-01 
  5.537652274507e-01 
  5.648957728467e-01 
  5.344795225531e-01 
  5.456100679492e-01 
  5.263243630517e-01 
  2.001448871171e-01 
  2.976953166692e-01 
  3.952457462214e-01 
  2.661487278845e-01 
  3.636991574367e-01 
  3.321525686520e-01 
  3.778718266541e-01 
  4.548142241864e-01 
  5.317566217188e-01 
  4.414773801897e-01 
  5.184197777220e-01 
  5.050829337253e-01 
  5.088050220487e-01 
  4.252948436622e-01 
  3.417846652758e-01 
  4.487855849270e-01 
  3.652754065406e-01 
  3.887661478054e-01 
  3.772221318162e-01 
  4.432598271912e-01 
  5.092975225662e-01 
  4.559030914325e-01 
  5.219407868075e-01 
  5.345840510488e-01 
  5.805181462347e-01 
  6.023560955625e-01 
  6.241940448903e-01 
  5.627295403435e-01 
  5.845674896713e-01 
  5.449409344523e-01 
  5.082321692580e-01 
  5.223273811383e-01 
  5.364225930186e-01 
  5.290999502827e-01 
  5.431951621630e-01 
  5.499677313074e-01 
  5.747675887017e-01 
  5.580106991874e-01 
  5.412538096732e-01 
  5.495574974523e-01 
  5.328006079380e-01 
  5.243474062029e-01 
  3.895928072080e-01 
  2.994789124361e-01 
  2.093650176641e-01 
  3.759021041369e-01 
  2.857882093649e-01 
  3.622114010657e-01 
  5.866286368146e-01 
  5.107361960328e-01 
  4.348437552510e-01 
  4.786761060724e-01 
  4.027836652906e-01 
  3.707235753302e-01 
  6.305972757117e-02 
  3.143407278928e-02 
 -1.915819926183e-04 
  3.599415390500e-01 
  3.283158842681e-01 
  6.568233505288e-01 
  6.032234978459e-01 
  5.364573768605e-01 
  4.696912558752e-01 
  6.299854828989e-01 
  5.632193619136e-01 
  6.567474679519e-01 
  5.999504956583e-01 
  5.922219012628e-01 
  5.844933068674e-01 
  4.857916662895e-01 
  4.780630718940e-01 
  3.716328369206e-01 
  5.771378733069e-01 
  6.540666182242e-01 
  7.309953631416e-01 
  5.997183747351e-01 
  6.766471196524e-01 
  6.222988761633e-01 
  7.348666696642e-01 
  6.568231444176e-01 
  5.787796191710e-01 
  6.655156003316e-01 
  5.874720750850e-01 
  5.961645309990e-01 
  8.346167096631e-01 
  7.859134289093e-01 
  7.372101481555e-01 
  7.124594708503e-01 
  6.637561900965e-01 
  5.903022320376e-01 
  7.402072404148e-01 
  6.810220582940e-01 
  6.218368761732e-01 
  7.423183632933e-01 
  6.831331811725e-01 
  7.444294861718e-01 
  5.866224317701e-01 
  5.976578124709e-01 
  6.086931931716e-01 
  7.129146119009e-01 
  7.239499926016e-01 
  8.392067920316e-01 
  6.027319480106e-01 
  4.882602811389e-01 
  3.737886142672e-01 
  5.361588566067e-01 
  4.216871897350e-01 
  4.695857652028e-01 
  8.978170729547e-01 
  8.702175669522e-01 
  8.426180609497e-01 
  7.546989348271e-01 
  7.270994288246e-01 
  6.115807966996e-01 
 -1.309515159629e-03 
  3.650188793877e-01 
  7.313472739351e-01 
 -7.347932256199e-03 
  3.589804622911e-01 
 -1.338634935277e-02 
  8.608660479506e-01 
  8.168231253336e-01 
  7.727802027166e-01 
  8.361215117385e-01 
  7.920785891215e-01 
  8.113769755263e-01 
  7.674372872349e-01 
  8.138961925034e-01 
  8.603550977720e-01 
  8.225525812052e-01 
  8.690114864738e-01 
  8.776678751755e-01 
  8.078106348266e-01 
  7.844770491851e-01 
  7.611434635436e-01 
  4.109758249022e-01 
  3.876422392607e-01 
  1.414101497776e-02 
  8.417295186669e-01 
  8.284840856409e-01 
  8.152386526150e-01 
  7.935775423679e-01 
  7.803321093419e-01 
  7.454255660689e-01 
  8.401924920001e-01 
  7.911904274385e-01 
  7.421883628770e-01 
  8.632398312648e-01 
  8.142377667033e-01 
  8.862871705296e-01 
  9.002833902465e-01 
  7.559107191003e-01 
  6.115380479541e-01 
  7.795742879231e-01 
  6.352016167769e-01 
  6.588651855998e-01 
  4.710569481268e-01 
  4.941821697221e-01 
  5.173073913174e-01 
  5.646463541287e-01 
  5.877715757240e-01 
  6.582357601306e-01 
  7.364900686863e-01 
  7.450482580762e-01 
  7.536064474661e-01 
  7.732504047226e-01 
  7.818085941125e-01 
  8.100107407590e-01 
 -1.197352329063e-03 
  1.730807616798e-01 
  3.473588756888e-01 
  8.614940891763e-03 
  1.828930549007e-01 
  1.842723411259e-02 
  3.411696332878e-01 
  4.215223152196e-01 
  5.018749971514e-01 
  4.441463561369e-01 
  5.244990380687e-01 
  5.471230789860e-01 
  4.754912875859e-01 
  2.392317238767e-01 
  2.972160167507e-03 
  2.397917779942e-01 
  3.532214284966e-03 
  4.092268402424e-03 
 -1.601619221722e-02 
  3.029846229040e-02 
  7.661311679802e-02 
  9.061959696030e-02 
  1.369342514679e-01 
  1.972553861378e-01 
  8.318111237492e-03 
 -3.526168757170e-03 
 -1.537044875183e-02 
  1.674186603646e-01 
  1.555743803699e-01 
  3.265192094917e-01 
  3.183056349957e-01 
  1.600256094740e-01 
  1.745583952192e-03 
  2.864747130039e-01 
  1.281946874822e-01 
  2.546437910122e-01 
  3.435575629002e-01 
  4.528231937556e-01 
  5.620888246109e-01 
  1.843807735293e-01 
  2.936464043846e-01 
  2.520398415833e-02 
 -2.198526945930e-02 
  8.461111293759e-02 
  1.912074953345e-01 
  1.509650416297e-01 
  2.575614240265e-01 
  3.239153527186e-01 
  7.358409451232e-03 
  8.444052721652e-03 
  9.529695992072e-03 
  4.088649983393e-01 
  4.099506416097e-01 
  8.103715872273e-01 
  1.371959688113e-02 
  3.872195378431e-01 
  7.607194788052e-01 
  7.112761345718e-03 
  3.806127023077e-01 
  5.059258103029e-04 
  5.062648355952e-01 
  2.526488533337e-01 
 -9.671289278437e-04 
  4.601044997143e-01 
  2.064885174528e-01 
  4.139441638335e-01 
  6.409062472152e-03 
  2.995900811540e-01 
  5.927710998358e-01 
  1.762326314567e-02 
  3.108042818275e-01 
  2.883746381919e-02 
  2.162449099405e-02 
  3.783783523082e-01 
  7.351322136224e-01 
  4.109997354215e-01 
  7.677535967357e-01 
  8.003749798490e-01 
  4.717362221442e-01 
  2.405709715504e-01 
  9.405720956574e-03 
  4.937479906955e-01 
  2.625827401017e-01 
  5.157597592468e-01 
  2.794879376556e-01 
  1.404178223858e-01 
  1.347707116075e-03 
  1.418396644875e-01 
  2.769549217747e-03 
  4.191391319419e-03 
  4.159876409068e-02 
  3.125464610640e-01 
  5.834941580373e-01 
  3.872431992813e-01 
  6.581908962546e-01 
  7.328876344719e-01 
  5.598783858834e-01 
  5.913822521020e-01 
  6.228861183206e-01 
  6.478840491836e-01 
  6.793879154023e-01 
  7.358897124839e-01 
  3.790284459520e-01 
  1.940023096692e-01 
  8.976173386461e-03 
  4.205645204285e-01 
  2.355383841457e-01 
  4.621005949050e-01 
  8.990991849455e-01 
  7.769109430747e-01 
  6.547227012039e-01 
  8.092535286741e-01 
  6.870652868033e-01 
  7.194078724026e-01 
  5.515338460030e-01 
  5.259265790281e-01 
  5.003193120533e-01 
  5.887528483485e-01 
  5.631455813736e-01 
  6.259718506940e-01 
  2.070340872140e-03 
  5.477870207991e-03 
  8.885399543842e-03 
  1.924310810766e-01 
  1.958386104125e-01 
  3.827918212811e-01 
  6.692353161632e-02 
  2.980853262483e-02 
 -7.306466366654e-03 
  3.081089793386e-02 
 -6.304101057626e-03 
 -5.301735748597e-03 
  5.928119777750e-01 
  6.101014212328e-01 
  6.273908646906e-01 
  5.752578566176e-01 
  5.925473000755e-01 
  5.577037354603e-01 
  6.298138437449e-01 
  6.395628937395e-01 
  6.493119437341e-01 
  6.415149176826e-01 
  6.512639676772e-01 
  6.532159916203e-01 
  6.483872120008e-01 
  6.173919440129e-01 
  5.863966760249e-01 
  6.162599902989e-01 
  5.852647223110e-01 
  5.841327685970e-01 
  5.873491571338e-01 
  6.172622839125e-01 
  6.471754106911e-01 
  6.065584436383e-01 
  6.364715704169e-01 
  6.257677301428e-01 
  5.832092492646e-01 
  5.855140578367e-01 
  5.878188664088e-01 
  5.193912204688e-01 
  5.216960290409e-01 
  4.555731916730e-01 
 -1.125806516736e-01 
 -1.301218420199e-01 
 -1.476630323663e-01 
 -1.519533682044e-01 
 -1.694945585507e-01 
 -1.913260847352e-01 
  6.305351850386e-01 
  5.739800157048e-01 
  5.174248463711e-01 
  5.901548059242e-01 
  5.335996365905e-01 
  5.497744268099e-01 
  6.306714270962e-01 
  6.234349219606e-01 
  6.161984168249e-01 
  5.763313559693e-01 
  5.690948508337e-01 
  5.219912848425e-01 
  3.891906503206e-01 
  4.697875710434e-01 
  5.503844917662e-01 
  4.510108644122e-01 
  5.316077851350e-01 
  5.128310785038e-01 
  5.246221923282e-01 
  4.602300338761e-01 
  3.958378754239e-01 
  4.391155175123e-01 
  3.747233590602e-01 
  3.536088426964e-01 
  5.491707422870e-01 
  5.304879638555e-01 
  5.118051854239e-01 
  5.544714110086e-01 
  5.357886325770e-01 
  5.597720797301e-01 
  5.117553510873e-01 
  5.282657935441e-01 
  5.447762360008e-01 
  4.510341470284e-01 
  4.675445894852e-01 
  3.903129429696e-01 
  5.884366633332e-01 
  5.726461440602e-01 
  5.568556247871e-01 
  6.148106797558e-01 
  5.990201604828e-01 
  6.411846961784e-01 
  5.542564617464e-01 
  5.555377563754e-01 
  5.568190510044e-01 
  5.739157304744e-01 
  5.751970251034e-01 
  5.935749992024e-01 
  3.968717381564e-01 
  3.774484160952e-01 
  3.580250940341e-01 
  3.073525105082e-01 
  2.879291884470e-01 
  2.178332828599e-01 
  3.899689609552e-01 
  4.493945906583e-01 
  5.088202203615e-01 
  3.720735355861e-01 
  4.314991652892e-01 
  3.541781102170e-01 
  5.061797490315e-01 
  4.430315602100e-01 
  3.798833713885e-01 
  4.318274703266e-01 
  3.686792815051e-01 
  3.574751916217e-01 
  5.918897182539e-01 
  5.774662660000e-01 
  5.630428137461e-01 
  5.683596910110e-01 
  5.539362387571e-01 
  5.448296637680e-01 
  4.549361821634e-01 
  4.494022289193e-01 
  4.438682756752e-01 
  3.567699249600e-01 
  3.512359717159e-01 
  2.586036677566e-01 
  4.559863819539e-01 
  5.229413004904e-01 
  5.898962190269e-01 
  4.517308135892e-01 
  5.186857321257e-01 
  4.474752452246e-01 
  2.566021496595e-01 
  2.552343255911e-01 
  2.538665015228e-01 
  1.280430331690e-01 
  1.266752091006e-01 
 -5.160833215625e-04 
  2.563710107285e-01 
  2.568706683276e-01 
  2.573703259267e-01 
  3.504611173248e-01 
  3.509607749239e-01 
  4.445512239211e-01 
  3.271562953213e-01 
  1.656116115317e-01 
  4.066927742070e-03 
  1.636644507543e-01 
  2.119766964659e-03 
  1.726061872488e-04 
  1.745340871390e-02 
  8.639579932621e-03 
 -1.742488486587e-04 
  2.616316488301e-01 
  2.528178200488e-01 
  5.058098889462e-01 
  4.446140824078e-01 
  4.311395430170e-01 
  4.176650036262e-01 
  3.509865171310e-01 
  3.375119777402e-01 
  2.573589518542e-01 
  4.469196066542e-01 
  2.253333044213e-01 
  3.747002188308e-03 
  2.397022789177e-01 
  1.811597668479e-02 
  3.248495118127e-02 
  5.414060638941e-01 
  5.625808313901e-01 
  5.837555988862e-01 
  5.095113442531e-01 
  5.306861117492e-01 
  4.776166246122e-01 
  5.816891068692e-01 
  5.628335899554e-01 
  5.439780730416e-01 
  5.719614202361e-01 
  5.531059033223e-01 
  5.622337336031e-01 
  4.137683563288e-01 
  4.467810790884e-01 
  4.797938018480e-01 
  3.678036205452e-01 
  4.008163433048e-01 
  3.218388847616e-01 
  4.767277082585e-01 
  4.458744858894e-01 
  4.150212635204e-01 
  5.081555488265e-01 
  4.773023264574e-01 
  5.395833893945e-01 
  3.233658942921e-01 
  4.035992201450e-01 
  4.838325459980e-01 
  3.782934735890e-01 
  4.585267994419e-01 
  4.332210528858e-01 
  4.173529906758e-01 
  3.679404149351e-01 
  3.185278391944e-01 
  3.368889793961e-01 
  2.874764036554e-01 
  2.564249681164e-01 
  5.819991036522e-01 
  5.803856432662e-01 
  5.787721828803e-01 
  5.302577310647e-01 
  5.286442706788e-01 
  4.785163584773e-01 
  5.389173194821e-01 
  4.782198796693e-01 
  4.175224398566e-01 
  4.915883443603e-01 
  4.308909045476e-01 
  4.442593692385e-01 
  5.896356271063e-01 
  5.637021085555e-01 
  5.377685900047e-01 
  5.169650330709e-01 
  4.910315145201e-01 
  4.442944390355e-01 
  3.278266405433e-01 
  3.748798534875e-01 
  4.219330664318e-01 
  1.650350719231e-01 
  2.120882848673e-01 
  2.243503302889e-03 
  5.519541866912e-01 
  5.329493819294e-01 
  5.139445771676e-01 
  5.958579393979e-01 
  5.768531346361e-01 
  6.397616921046e-01 
 -1.698078409861e-01 
 -1.764414651099e-01 
 -1.830750892338e-01 
 -2.564369014287e-01 
 -2.630705255525e-01 
 -3.430659618712e-01 
  7.107434239011e-02 
  3.138109806922e-02 
 -8.312146251671e-03 
  1.412711988539e-01 
  1.015779545330e-01 
  2.114680553177e-01 
  6.491124847291e-02 
  2.935102653600e-02 
 -6.209195400910e-03 
  3.018876530096e-02 
 -5.371456635948e-03 
 -4.533717870986e-03 
  2.168464307012e-01 
  1.083145287278e-01 
 -2.173732455826e-04 
  2.767446554074e-01 
  1.682127534340e-01 
  3.366428801137e-01 
  5.211409426739e-01 
  4.264901587321e-01 
  3.318393747903e-01 
  2.570939313156e-01 
  1.624431473738e-01 
 -6.953080042721e-03 
  5.404516726508e-01 
  5.976552650048e-01 
  6.548588573589e-01 
  5.334225106009e-01 
  5.906261029550e-01 
  5.263933485510e-01 
  5.290941929927e-01 
  5.309104896033e-01 
  5.327267862140e-01 
  4.355120802962e-01 
  4.373283769068e-01 
  3.419299675997e-01 
  2.975017909626e-03 
  1.088159456799e-01 
  2.146568734501e-01 
 -6.699592253303e-04 
  1.051709685449e-01 
 -4.314936360286e-03 
  4.004130951920e-01 
  3.081364094032e-01 
  2.158597236143e-01 
  3.732586095503e-01 
  2.809819237614e-01 
  3.461041239085e-01 
 -1.880329392619e-03 
  6.471746442890e-03 
  1.482382227840e-02 
  2.623229339943e-01 
  2.706750098298e-01 
  5.265261973812e-01 
  5.267220336385e-01 
  2.696033127046e-01 
  1.248459177070e-02 
  5.246684399290e-01 
  2.675497189951e-01 
  5.226148462195e-01 
  2.969640149232e-01 
  2.122687746332e-01 
  1.275735343432e-01 
  4.562158997099e-01 
  3.715206594198e-01 
  6.154677844965e-01 
  2.610737585132e-01 
  1.322603827299e-01 
  3.447006946520e-03 
  2.317311423319e-01 
  1.029177665485e-01 
  2.023885261505e-01 
  7.575851328099e-01 
  3.821155658940e-01 
  6.645998978168e-03 
  3.892686960193e-01 
  1.379912910341e-02 
  2.095225922865e-02 
  7.327168012932e-01 
  3.663460733420e-01 
 -2.465460922513e-05 
  3.773060857833e-01 
  1.093535783210e-02 
  2.189537027343e-02 
  4.719292814639e-01 
  2.427708577487e-01 
  1.361243403344e-02 
  4.371102744760e-01 
  2.079518507608e-01 
  4.022912674881e-01 
  5.176916922861e-01 
  2.615604532930e-01 
  5.429214299793e-03 
  6.139563844973e-01 
  3.578251455041e-01 
  7.102210767085e-01 
  6.057040929047e-01 
  5.680372005057e-01 
  5.303703081068e-01 
  5.291050207687e-01 
  4.914381283697e-01 
  4.525059486326e-01 
  8.124438920519e-01 
  4.105377976646e-01 
  8.631703277274e-03 
  4.059465211927e-01 
  4.040426805353e-03 
 -5.508496665673e-04 
  6.493663657984e-01 
  6.841485753001e-01 
  7.189307848019e-01 
  7.096311833067e-01 
  7.444133928085e-01 
  7.698960008151e-01 
  7.075724983984e-01 
  6.829554968988e-01 
  6.583384953992e-01 
  6.186260395232e-01 
  5.940090380236e-01 
  5.296795806479e-01 
  6.003606546425e-01 
  5.162037216944e-01 
  4.320467887462e-01 
  5.904609121892e-01 
  5.063039792410e-01 
  5.805611697358e-01 
  4.356980586149e-01 
  4.589206711482e-01 
  4.821432836816e-01 
  5.075568388876e-01 
  5.307794514210e-01 
  5.794156191604e-01 
  5.898086783333e-01 
  5.858640871274e-01 
  5.819194959214e-01 
  6.787157260186e-01 
  6.747711348127e-01 
  7.676227737039e-01 
  7.685774229700e-01 
  8.132047900014e-01 
  8.578321570328e-01 
  6.774815970163e-01 
  7.221089640477e-01 
  5.863857710626e-01 
  7.707100886110e-01 
  7.499518780706e-01 
  7.291936675302e-01 
  7.922579847335e-01 
  7.714997741931e-01 
  8.138058808561e-01 
  6.412853345550e-01 
  7.014708360776e-01 
  7.616563376003e-01 
  6.116666224123e-01 
  6.718521239350e-01 
  5.820479102697e-01 
  8.069211477097e-01 
  7.918064278315e-01 
  7.766917079532e-01 
  8.388749702999e-01 
  8.237602504217e-01 
  8.708287928901e-01 
  8.113622133388e-01 
  7.810906650373e-01 
  7.508191167359e-01 
  4.214834542431e-01 
  3.912119059416e-01 
  3.160469514733e-02 
  6.183314022321e-01 
  7.411794141850e-01 
  8.640274261379e-01 
  7.600349071321e-01 
  8.828829190850e-01 
  9.017384120320e-01 
  8.632635835625e-01 
  7.383209415832e-01 
  6.133782996040e-01 
  7.226434891134e-01 
  5.977008471341e-01 
  5.820233946643e-01 
  5.015856927395e-01 
  5.525548178906e-01 
  6.035239430417e-01 
  5.829377388886e-01 
  6.339068640398e-01 
  6.642897850378e-01 
  6.029813486750e-01 
  5.517713408926e-01 
  5.005613331102e-01 
  5.148769769716e-01 
  4.636669691892e-01 
  4.267726052682e-01 
  8.808764329765e-01 
  8.764447869910e-01 
  8.720131410055e-01 
  8.259442080005e-01 
  8.215125620150e-01 
  7.710119830245e-01 
  8.115455082129e-01 
  8.343738270605e-01 
  8.572021459081e-01 
  7.904649121236e-01 
  8.132932309712e-01 
  7.693843160343e-01 
  1.174246583165e-02 
  3.940480880021e-01 
  7.763537101725e-01 
  4.090556274638e-01 
  7.913612496343e-01 
  8.063687890960e-01 