# vtk DataFile Version 2
NuDG++ 2D simulation
ASCII
DATASET UNSTRUCTURED_GRID

POINTS 2244 double
 -1.656250060000e-01  -2.000000030000e-01  0.0
 -1.828125045000e-01  -1.772221997500e-01  0.0
 -2.000000030000e-01  -1.544443965000e-01  0.0
 -1.828125045000e-01  -2.000000030000e-01  0.0
 -2.000000030000e-01  -1.772221997500e-01  0.0
 -2.000000030000e-01  -2.000000030000e-01  0.0
 -6.428571790000e-02  -1.700000018000e-01  0.0
 -8.058035746000e-02  -1.850000024000e-01  0.0
 -9.687499702000e-02  -2.000000030000e-01  0.0
 -6.339285895000e-02  -1.850000024000e-01  0.0
 -7.968749851000e-02  -2.000000030000e-01  0.0
 -6.250000000000e-02  -2.000000030000e-01  0.0
 -2.000000030000e-01  -1.544443965000e-01  0.0
 -1.750000045000e-01  -1.379364989500e-01  0.0
 -1.500000060000e-01  -1.214286014000e-01  0.0
 -2.000000030000e-01  -1.316666491500e-01  0.0
 -1.750000045000e-01  -1.151587516000e-01  0.0
 -2.000000030000e-01  -1.088889018000e-01  0.0
 -1.500000060000e-01  -1.214286014000e-01  0.0
 -1.750000045000e-01  -1.379364989500e-01  0.0
 -2.000000030000e-01  -1.544443965000e-01  0.0
 -1.500000060000e-01  -1.457143016000e-01  0.0
 -1.750000045000e-01  -1.622221991500e-01  0.0
 -1.500000060000e-01  -1.700000018000e-01  0.0
 -1.500000060000e-01  -7.285714149000e-02  0.0
 -1.750000045000e-01  -9.087302164500e-02  0.0
 -2.000000030000e-01  -1.088889018000e-01  0.0
 -1.500000060000e-01  -9.714287144500e-02  0.0
 -1.750000045000e-01  -1.151587516000e-01  0.0
 -1.500000060000e-01  -1.214286014000e-01  0.0
  1.832975030000e+00  -4.625000060000e-02  0.0
  1.853987515000e+00  -1.231250018000e-01  0.0
  1.875000000000e+00  -2.000000030000e-01  0.0
  1.916487515000e+00  -7.187499851000e-02  0.0
  1.937500000000e+00  -1.487499997100e-01  0.0
  2.000000000000e+00  -9.749999642000e-02  0.0
 -1.500000060000e-01  -1.700000018000e-01  0.0
 -1.360000037000e-01  -1.525000036000e-01  0.0
 -1.220000014000e-01  -1.350000054000e-01  0.0
 -1.500000060000e-01  -1.457143016000e-01  0.0
 -1.360000037000e-01  -1.282143034000e-01  0.0
 -1.500000060000e-01  -1.214286014000e-01  0.0
  2.849999964000e-01  -2.333333530000e-02  0.0
  2.837499976000e-01  -8.166666795000e-02  0.0
  2.824999988000e-01  -1.400000006000e-01  0.0
  3.174999952000e-01  -4.666666780000e-02  0.0
  3.162499964000e-01  -1.050000004500e-01  0.0
  3.499999940000e-01  -7.000000030000e-02  0.0
 -1.071429029000e-01  -1.700000018000e-01  0.0
 -8.571431040000e-02  -1.700000018000e-01  0.0
 -6.428571790000e-02  -1.700000018000e-01  0.0
 -9.857145324000e-02  -1.525000036000e-01  0.0
 -7.714286074000e-02  -1.525000036000e-01  0.0
 -9.000000358000e-02  -1.350000054000e-01  0.0
 -1.312499940000e-01  -2.000000030000e-01  0.0
 -1.191964484500e-01  -1.850000024000e-01  0.0
 -1.071429029000e-01  -1.700000018000e-01  0.0
 -1.406250000000e-01  -1.850000024000e-01  0.0
 -1.285714544500e-01  -1.700000018000e-01  0.0
 -1.500000060000e-01  -1.700000018000e-01  0.0
 -1.220000014000e-01  -1.350000054000e-01  0.0
 -1.060000024900e-01  -1.350000054000e-01  0.0
 -9.000000358000e-02  -1.350000054000e-01  0.0
 -1.185000017500e-01  -1.175000034500e-01  0.0
 -1.025000028400e-01  -1.175000034500e-01  0.0
 -1.150000021000e-01  -1.000000015000e-01  0.0
 -9.000000358000e-02  -1.350000054000e-01  0.0
 -1.060000024900e-01  -1.350000054000e-01  0.0
 -1.220000014000e-01  -1.350000054000e-01  0.0
 -9.857145324000e-02  -1.525000036000e-01  0.0
 -1.145714521500e-01  -1.525000036000e-01  0.0
 -1.071429029000e-01  -1.700000018000e-01  0.0
 -7.778175920000e-02  -9.192386270000e-02  0.0
 -9.639088065000e-02  -9.596193210000e-02  0.0
 -1.150000021000e-01  -1.000000015000e-01  0.0
 -8.389088139000e-02  -1.134619340500e-01  0.0
 -1.025000028400e-01  -1.175000034500e-01  0.0
 -9.000000358000e-02  -1.350000054000e-01  0.0
 -1.220000014000e-01  -1.350000054000e-01  0.0
 -1.185000017500e-01  -1.175000034500e-01  0.0
 -1.150000021000e-01  -1.000000015000e-01  0.0
 -1.360000037000e-01  -1.282143034000e-01  0.0
 -1.325000040500e-01  -1.107143014500e-01  0.0
 -1.500000060000e-01  -1.214286014000e-01  0.0
 -7.778175920000e-02  -9.192386270000e-02  0.0
 -8.389088139000e-02  -1.134619340500e-01  0.0
 -9.000000358000e-02  -1.350000054000e-01  0.0
 -6.639088876500e-02  -1.022535823500e-01  0.0
 -7.250001095500e-02  -1.237916537000e-01  0.0
 -5.500001833000e-02  -1.125833020000e-01  0.0
 -1.071429029000e-01  -1.700000018000e-01  0.0
 -1.145714521500e-01  -1.525000036000e-01  0.0
 -1.220000014000e-01  -1.350000054000e-01  0.0
 -1.285714544500e-01  -1.700000018000e-01  0.0
 -1.360000037000e-01  -1.525000036000e-01  0.0
 -1.500000060000e-01  -1.700000018000e-01  0.0
  6.250000093000e-03  -2.000000030000e-01  0.0
  4.062500153650e-02  -2.000000030000e-01  0.0
  7.500000298000e-02  -2.000000030000e-01  0.0
  1.383928512150e-02  -1.850000024000e-01  0.0
  4.821428656500e-02  -1.850000024000e-01  0.0
  2.142857015000e-02  -1.700000018000e-01  0.0
 -1.500000060000e-01  -7.285714149000e-02  0.0
 -1.500000060000e-01  -9.714287144500e-02  0.0
 -1.500000060000e-01  -1.214286014000e-01  0.0
 -1.325000040500e-01  -8.642857149500e-02  0.0
 -1.325000040500e-01  -1.107143014500e-01  0.0
 -1.150000021000e-01  -1.000000015000e-01  0.0
 -2.000000030000e-01  -6.333333254000e-02  0.0
 -1.750000045000e-01  -6.809523701500e-02  0.0
 -1.500000060000e-01  -7.285714149000e-02  0.0
 -1.750000045000e-01  -4.380952660000e-02  0.0
 -1.500000060000e-01  -4.857143107500e-02  0.0
 -1.500000060000e-01  -2.428572066000e-02  0.0
 -2.000000030000e-01  -6.333333254000e-02  0.0
 -2.000000030000e-01  -8.611111717000e-02  0.0
 -2.000000030000e-01  -1.088889018000e-01  0.0
 -1.750000045000e-01  -6.809523701500e-02  0.0
 -1.750000045000e-01  -9.087302164500e-02  0.0
 -1.500000060000e-01  -7.285714149000e-02  0.0
 -2.000000030000e-01  -6.333333254000e-02  0.0
 -1.750000045000e-01  -4.380952660000e-02  0.0
 -1.500000060000e-01  -2.428572066000e-02  0.0
 -2.000000030000e-01  -4.055555630500e-02  0.0
 -1.750000045000e-01  -2.103175036500e-02  0.0
 -2.000000030000e-01  -1.777778007000e-02  0.0
 -1.500000060000e-01  -2.428572066000e-02  0.0
 -1.500000060000e-01  -4.857143107500e-02  0.0
 -1.500000060000e-01  -7.285714149000e-02  0.0
 -1.281259023000e-01  -2.896608505500e-02  0.0
 -1.281259023000e-01  -5.325179547000e-02  0.0
 -1.062517986000e-01  -3.364644945000e-02  0.0
 -1.099999994000e-01   1.996667010000e-08  0.0
 -1.300000027000e-01  -1.214285034666e-02  0.0
 -1.500000060000e-01  -2.428572066000e-02  0.0
 -1.081258990000e-01  -1.682321474166e-02  0.0
 -1.281259023000e-01  -2.896608505500e-02  0.0
 -1.062517986000e-01  -3.364644945000e-02  0.0
 -1.500000060000e-01  -2.428572066000e-02  0.0
 -1.500000060000e-01   0.000000000000e+00  0.0
 -1.500000060000e-01   2.428572066000e-02  0.0
 -1.750000045000e-01  -2.103175036500e-02  0.0
 -1.750000045000e-01   3.253970295000e-03  0.0
 -2.000000030000e-01  -1.777778007000e-02  0.0
 -1.500000060000e-01  -7.285714149000e-02  0.0
 -1.226314045700e-01  -6.892856210000e-02  0.0
 -9.526280314000e-02  -6.499998271000e-02  0.0
 -1.281259023000e-01  -5.325179547000e-02  0.0
 -1.007573008700e-01  -4.932321608000e-02  0.0
 -1.062517986000e-01  -3.364644945000e-02  0.0
  3.499999940000e-01   1.400000006000e-01  0.0
  4.021931737500e-01   1.224999986500e-01  0.0
  4.543863535000e-01   1.049999967000e-01  0.0
  4.187500029500e-01   1.749999970000e-01  0.0
  4.709431827000e-01   1.574999950500e-01  0.0
  4.875000119000e-01   2.099999934000e-01  0.0
 -7.101409137000e-02  -4.349999130000e-02  0.0
 -8.313844725500e-02  -5.424998700500e-02  0.0
 -9.526280314000e-02  -6.499998271000e-02  0.0
 -6.449843011500e-02  -5.250913650000e-02  0.0
 -7.662278600000e-02  -6.325913220500e-02  0.0
 -5.798276886000e-02  -6.151828170000e-02  0.0
 -9.526280314000e-02  -6.499998271000e-02  0.0
 -1.226314045700e-01  -6.892856210000e-02  0.0
 -1.500000060000e-01  -7.285714149000e-02  0.0
 -1.051314026200e-01  -8.249999210500e-02  0.0
 -1.325000040500e-01  -8.642857149500e-02  0.0
 -1.150000021000e-01  -1.000000015000e-01  0.0
 -6.181925908000e-02  -1.656441018000e-02  0.0
 -7.051259093000e-02  -1.954082492500e-02  0.0
 -7.920592278000e-02  -2.251723967000e-02  0.0
 -5.862244405000e-02  -2.428220026000e-02  0.0
 -6.731577590000e-02  -2.725861500500e-02  0.0
 -5.542562902000e-02  -3.199999034000e-02  0.0
 -7.920592278000e-02  -2.251723967000e-02  0.0
 -9.272886069000e-02  -2.808184456000e-02  0.0
 -1.062517986000e-01  -3.364644945000e-02  0.0
 -7.511000707500e-02  -3.300861548500e-02  0.0
 -8.863294498500e-02  -3.857322037500e-02  0.0
 -7.101409137000e-02  -4.349999130000e-02  0.0
 -7.101409137000e-02  -4.349999130000e-02  0.0
 -6.321986019500e-02  -3.774999082000e-02  0.0
 -5.542562902000e-02  -3.199999034000e-02  0.0
 -7.511000707500e-02  -3.300861548500e-02  0.0
 -6.731577590000e-02  -2.725861500500e-02  0.0
 -7.920592278000e-02  -2.251723967000e-02  0.0
 -7.920592278000e-02  -2.251723967000e-02  0.0
 -9.460296109000e-02  -1.125860985166e-02  0.0
 -1.099999994000e-01   1.996667010000e-08  0.0
 -9.272886069000e-02  -2.808184456000e-02  0.0
 -1.081258990000e-01  -1.682321474166e-02  0.0
 -1.062517986000e-01  -3.364644945000e-02  0.0
 -7.778175920000e-02  -9.192386270000e-02  0.0
 -6.788226403000e-02  -7.672107220000e-02  0.0
 -5.798276886000e-02  -6.151828170000e-02  0.0
 -8.652228117000e-02  -7.846192270500e-02  0.0
 -7.662278600000e-02  -6.325913220500e-02  0.0
 -9.526280314000e-02  -6.499998271000e-02  0.0
 -7.101409137000e-02  -4.349999130000e-02  0.0
 -8.863294498500e-02  -3.857322037500e-02  0.0
 -1.062517986000e-01  -3.364644945000e-02  0.0
 -8.313844725500e-02  -5.424998700500e-02  0.0
 -1.007573008700e-01  -4.932321608000e-02  0.0
 -9.526280314000e-02  -6.499998271000e-02  0.0
 -7.778175920000e-02  -9.192386270000e-02  0.0
 -8.652228117000e-02  -7.846192270500e-02  0.0
 -9.526280314000e-02  -6.499998271000e-02  0.0
 -9.639088065000e-02  -9.596193210000e-02  0.0
 -1.051314026200e-01  -8.249999210500e-02  0.0
 -1.150000021000e-01  -1.000000015000e-01  0.0
[...]
POINT_DATA 2244
SCALARS field1 double 1
LOOKUP_TABLE default
  2.812255405767e-03 
  9.163260313484e-02 
  1.804529508639e-01 
  1.371982590949e-03 
  9.019233032002e-02 
 -6.829022386932e-05 
  2.885951188514e-01 
  1.437170448512e-01 
 -1.161029148984e-03 
  1.452634419018e-01 
  3.853679016434e-04 
  1.931764952271e-03 
  1.782066371390e-01 
  2.306252698495e-01 
  2.830439025601e-01 
  2.455363848795e-01 
  2.979550175900e-01 
  3.128661326200e-01 
  2.843672938177e-01 
  2.311579003746e-01 
  1.779485069314e-01 
  2.153733945747e-01 
  1.621640011316e-01 
  1.463794953317e-01 
  3.883904883564e-01 
  3.508078841219e-01 
  3.132252798875e-01 
  3.377047096945e-01 
  3.001221054600e-01 
  2.870189310325e-01 
  2.968706478766e-01 
  1.417188461745e-01 
 -1.343295552761e-02 
  3.114488924995e-01 
  1.562970907974e-01 
  3.260271371224e-01 
  1.467577608488e-01 
  2.092266387206e-01 
  2.716955165923e-01 
  2.162034961775e-01 
  2.786723740492e-01 
  2.856492315061e-01 
  3.601834736323e-01 
  3.624908134969e-01 
  3.647981533615e-01 
  3.658105585359e-01 
  3.681178984005e-01 
  3.714376434395e-01 
  2.092061208404e-01 
  2.482666745798e-01 
  2.873272283192e-01 
  2.576935042003e-01 
  2.967540579397e-01 
  3.061808875602e-01 
  2.756889635895e-04 
  1.047695379115e-01 
  2.092633868594e-01 
  7.106158976450e-02 
  1.755554387124e-01 
  1.418474905654e-01 
  2.684393344743e-01 
  2.858610088561e-01 
  3.032826832380e-01 
  3.139453902394e-01 
  3.313670646213e-01 
  3.594514460046e-01 
  3.036800302509e-01 
  2.861522738555e-01 
  2.686245174601e-01 
  2.564633094604e-01 
  2.389355530649e-01 
  2.092465886698e-01 
  3.970537856811e-01 
  3.779680138122e-01 
  3.588822419432e-01 
  3.515668560580e-01 
  3.324810841891e-01 
  3.060799264349e-01 
  2.698267841409e-01 
  3.149692166726e-01 
  3.601116492043e-01 
  2.784804317782e-01 
  3.236228643099e-01 
  2.871340794155e-01 
  3.973819115661e-01 
  3.515449602232e-01 
  3.057080088803e-01 
  4.042932751889e-01 
  3.584563238460e-01 
  4.112046388118e-01 
  2.076972612873e-01 
  2.395794412525e-01 
  2.714616212177e-01 
  1.763604703768e-01 
  2.082426503420e-01 
  1.450236794664e-01 
  1.509112964790e-03 
  3.037403440279e-03 
  4.565693915769e-03 
  2.014681584468e-01 
  2.029964489223e-01 
  4.014272039287e-01 
  3.879271420034e-01 
  3.376531708084e-01 
  2.873791996135e-01 
  3.740455857405e-01 
  3.237716145456e-01 
  3.601640294777e-01 
  4.042451480497e-01 
  3.947334782551e-01 
  3.852218084605e-01 
  4.146053087141e-01 
  4.050936389196e-01 
  4.249654693786e-01 
  4.032341824852e-01 
  3.586272938658e-01 
  3.140204052463e-01 
  3.947035056464e-01 
  3.500966170270e-01 
  3.861728288077e-01 
  4.055198942457e-01 
  4.153533485839e-01 
  4.251868029221e-01 
  4.276704304850e-01 
  4.375038848232e-01 
  4.498209667243e-01 
  4.253025296294e-01 
  4.067926402378e-01 
  3.882827508461e-01 
  3.956785474267e-01 
  3.771686580350e-01 
  3.660545652240e-01 
  3.423537379859e-01 
  3.840065816844e-01 
  4.256594253829e-01 
  3.521960415254e-01 
  3.938488852239e-01 
  3.620383450649e-01 
  4.209234068116e-01 
  4.255787814585e-01 
  4.302341561054e-01 
  4.356729909404e-01 
  4.403283655873e-01 
  4.504225750692e-01 
  3.872362715608e-01 
  3.758766231159e-01 
  3.645169746709e-01 
  3.760071351778e-01 
  3.646474867328e-01 
  3.647779987947e-01 
  3.555590012265e-01 
  3.925093931170e-01 
  4.294597850075e-01 
  2.082615090337e-01 
  2.452119009242e-01 
  6.096401684088e-02 
  3.311468563705e-01 
  3.511123227531e-01 
  3.710777891358e-01 
  3.713808064561e-01 
  3.913462728387e-01 
  4.116147565417e-01 
  3.658874162491e-01 
  3.767143387858e-01 
  3.875412613225e-01 
  3.638056791416e-01 
  3.746326016783e-01 
  3.617239420341e-01 
  1.262404586682e-01 
  1.935059572729e-01 
  2.607714558776e-01 
  1.650735340040e-01 
  2.323390326087e-01 
  2.039066093398e-01 
  2.521865301609e-01 
  3.064595646990e-01 
  3.607325992370e-01 
  2.916646169447e-01 
  3.459376514827e-01 
  3.311427037284e-01 
  3.313497536011e-01 
  2.698509690872e-01 
  2.083521845732e-01 
  2.943187648727e-01 
  2.328199803587e-01 
  2.572877761442e-01 
  2.511149548962e-01 
  2.947574359380e-01 
  3.383999169799e-01 
  3.064784588622e-01 
  3.501209399041e-01 
  3.618419628283e-01 
  3.980799795854e-01 
  4.065313228379e-01 
  4.149826660905e-01 
  3.836838076101e-01 
  3.921351508627e-01 
  3.692876356349e-01 
  3.334709290019e-01 
  3.479027551279e-01 
  3.623345812539e-01 
  3.527446147348e-01 
  3.671764408608e-01 
  3.720183004676e-01 
  3.940502781482e-01 
  3.801622741537e-01 
  3.662742701591e-01 
  3.766466497937e-01 
  3.627586457991e-01 
  3.592430214391e-01 
  2.577785577126e-01 
  1.935445449382e-01 
  1.293105321639e-01 
  2.439153814379e-01 
  1.796813686636e-01 
  2.300522051633e-01 
  4.098876221488e-01 
  3.581320071203e-01 
  3.063763920919e-01 
  3.491375301067e-01 
  2.973819150782e-01 
  2.883874380646e-01 
  3.005335198147e-01 
  3.156334617502e-01 
  3.307334036858e-01 
  3.162274583820e-01 
  3.313274003175e-01 
  3.319213969493e-01 
  4.323412827182e-01 
  3.965214048059e-01 
  3.607015268936e-01 
  4.524271828570e-01 
  4.166073049448e-01 
  4.725130829959e-01 
  4.288579144000e-01 
  4.183478258057e-01 
  4.078377372113e-01 
  3.588168497411e-01 
  3.483067611467e-01 
  2.887757850821e-01 
  3.965514764913e-01 
  4.419149774392e-01 
  4.872784783871e-01 
  4.052929684812e-01 
  4.506564694291e-01 
  4.140344604712e-01 
  4.896319602352e-01 
  4.432069968567e-01 
  3.967820334782e-01 
  4.527311733928e-01 
  4.063062100142e-01 
  4.158303865503e-01 
  5.572228721129e-01 
  5.244283651723e-01 
  4.916338582316e-01 
  4.848204689274e-01 
  4.520259619867e-01 
  4.124180657418e-01 
  4.494167722625e-01 
  4.313059757059e-01 
  4.131951791493e-01 
  4.713961212645e-01 
  4.532853247079e-01 
  4.933754702666e-01 
  4.092734382846e-01 
  4.216301375412e-01 
  4.339868367978e-01 
  4.843778534188e-01 
  4.967345526754e-01 
  5.594822685530e-01 
  4.314052827166e-01 
  3.606884684357e-01 
  2.899716541547e-01 
  3.957033819607e-01 
  3.249865676797e-01 
  3.600014812048e-01 
  5.954007779092e-01 
  5.784485381723e-01 
  5.614962984355e-01 
  5.162835002632e-01 
  4.993312605263e-01 
  4.371662226172e-01 
  1.113324527000e-03 
  2.186130927567e-01 
  4.361128609865e-01 
 -2.252179607049e-03 
  2.152475886227e-01 
 -5.617683741098e-03 
  5.703769765385e-01 
  5.118712735167e-01 
  4.533655704949e-01 
  5.271220103121e-01 
  4.686163072903e-01 
  4.838670440858e-01 
  4.504376880471e-01 
  5.104530581535e-01 
  5.704684282599e-01 
  5.178039815928e-01 
  5.778193516992e-01 
  5.851702751386e-01 
  4.823746898947e-01 
  4.664824263769e-01 
  4.505901628592e-01 
  2.461220184232e-01 
  2.302297549054e-01 
  9.869346951709e-03 
  5.607666149336e-01 
  5.237088380121e-01 
  4.866510610907e-01 
  5.277294728718e-01 
  4.906716959504e-01 
  4.946923308101e-01 
  5.479075628313e-01 
  4.926123765780e-01 
  4.373171903246e-01 
  5.683660464842e-01 
  5.130708602309e-01 
  5.888245301371e-01 
  5.948827908575e-01 
  5.164259113290e-01 
  4.379690318004e-01 
  5.322749247879e-01 
  4.538180452594e-01 
  4.696670587183e-01 
  3.613712172469e-01 
  3.770125391113e-01 
  3.926538609758e-01 
  4.172817691624e-01 
  4.329230910269e-01 
  4.731923210779e-01 
  4.474039579612e-01 
  4.729487954962e-01 
  4.984936330312e-01 
  4.659083693546e-01 
  4.914532068896e-01 
  4.844127807480e-01 
 -1.622086690512e-03 
  1.054816595320e-01 
  2.125854057544e-01 
  4.616647529480e-03 
  1.117203937519e-01 
  1.085538174947e-02 
  2.092605817036e-01 
  2.681995283928e-01 
  3.271384750820e-01 
  2.745550067972e-01 
  3.334939534864e-01 
  3.398494318908e-01 
  3.278222061117e-01 
  1.671303950824e-01 
  6.438584053091e-03 
  1.637757923015e-01 
  3.083981272170e-03 
 -2.706215087508e-04 
 -8.008424766256e-03 
  1.870944734365e-02 
  4.542731945355e-02 
  5.801551813585e-02 
  8.473339024576e-02 
  1.240394610380e-01 
  3.309171809137e-03 
 -2.768615609528e-03 
 -8.846403028193e-03 
  1.016443110468e-01 
  9.556652362811e-02 
  1.999794502844e-01 
  2.387818997751e-01 
  1.199446537921e-01 
  1.107407809079e-03 
  2.084594887188e-01 
  8.962224273574e-02 
  1.781370776624e-01 
  2.107442445495e-01 
  2.795695866012e-01 
  3.483949286529e-01 
  1.127994412964e-01 
  1.816247833481e-01 
  1.485463804329e-02 
 -1.188575962986e-02 
  5.516591987600e-02 
  1.222175993819e-01 
  9.360319890444e-02 
  1.606548784103e-01 
  1.990921574387e-01 
  3.757362607450e-03 
  4.507476221769e-03 
  5.257589836089e-03 
  2.445394407927e-01 
  2.452895544070e-01 
  4.853215189779e-01 
  8.615696641774e-03 
  2.302436406396e-01 
  4.518715846375e-01 
  5.009465781304e-03 
  2.266374097792e-01 
  1.403234920833e-03 
  3.811991920261e-01 
  1.925935731763e-01 
  3.987954326409e-03 
  3.466507118995e-01 
  1.580450930497e-01 
  3.121022317730e-01 
  3.519791971481e-03 
  1.838020499062e-01 
  3.640843078409e-01 
  8.882803722951e-03 
  1.891650616577e-01 
  1.424581547442e-02 
  1.250461315328e-02 
  2.301037804283e-01 
  4.477029477033e-01 
  2.463834222211e-01 
  4.639825894961e-01 
  4.802622312889e-01 
  3.627848628574e-01 
  1.858223599612e-01 
  8.859857065048e-03 
  3.773268848337e-01 
  2.003643819375e-01 
  3.918689068100e-01 
  2.135610250675e-01 
  1.071775874822e-01 
  7.941498970246e-04 
  1.086407256355e-01 
  2.257288050259e-03 
  3.720426203493e-03 
  2.183238304300e-02 
  1.902339555202e-01 
  3.586355279975e-01 
  2.340824523652e-01 
  4.024840248425e-01 
  4.463325216874e-01 
  3.471158624038e-01 
  3.805448284682e-01 
  4.139737945327e-01 
  3.975122949505e-01 
  4.309412610149e-01 
  4.479087274972e-01 
  2.947507882724e-01 
  1.515273091546e-01 
  8.303830036850e-03 
  3.248993382954e-01 
  1.816758591776e-01 
  3.550478883183e-01 
  5.921445068443e-01 
  5.300323488841e-01 
  4.679201909239e-01 
  5.429536089308e-01 
  4.808414509706e-01 
  4.937627110172e-01 
  3.415870827622e-01 
  3.339685790545e-01 
  3.263500753468e-01 
  3.782652269084e-01 
  3.706467232007e-01 
  4.149433710546e-01 
  1.552258642668e-03 
  4.243288891289e-03 
  6.934319139911e-03 
  1.500829644202e-01 
  1.527739946688e-01 
  2.986136701977e-01 
  4.003258528816e-02 
  1.820480560549e-02 
 -3.622974077171e-03 
  1.816378639548e-02 
 -3.663993287187e-03 
 -3.705012497203e-03 
  4.094875156969e-01 
  4.195219295041e-01 
  4.295563433113e-01 
  3.918288816788e-01 
  4.018632954860e-01 
  3.741702476606e-01 
  4.313211957133e-01 
  4.400288079751e-01 
  4.487364202368e-01 
  4.412524251295e-01 
  4.499600373912e-01 
  4.511836545456e-01 
  4.473445976737e-01 
  4.262886601355e-01 
  4.052327225974e-01 
  4.254718456139e-01 
  4.044159080757e-01 
  4.035990935541e-01 
  4.055438719795e-01 
  4.260592491641e-01 
  4.465746263487e-01 
  4.170816588311e-01 
  4.375970360157e-01 
  4.286194456827e-01 
  4.027501244232e-01 
  4.048999020497e-01 
  4.070496796762e-01 
  3.587565509604e-01 
  3.609063285869e-01 
  3.147629774976e-01 
 -6.415599642008e-03 
 -2.578215317616e-02 
 -4.514870671032e-02 
  1.421132048264e-01 
  1.227466512923e-01 
  2.906420092949e-01 
  4.314604743027e-01 
  3.874776928019e-01 
  3.434949113012e-01 
  4.005089503662e-01 
  3.565261688654e-01 
  3.695574264297e-01 
  4.309488784078e-01 
  4.272043213055e-01 
  4.234597642032e-01 
  3.886229369489e-01 
  3.848783798466e-01 
  3.462969954900e-01 
  2.526352910978e-01 
  3.110241115247e-01 
  3.694129319517e-01 
  2.965792124771e-01 
  3.549680329040e-01 
  3.405231338564e-01 
  3.461601053022e-01 
  3.007574931393e-01 
  2.553548809764e-01 
  2.830065886060e-01 
  2.376039764431e-01 
  2.198530719098e-01 
  3.682056604205e-01 
  3.540344790055e-01 
  3.398632975904e-01 
  3.720782697785e-01 
  3.579070883635e-01 
  3.759508791366e-01 
  3.394073402244e-01 
  3.528633080904e-01 
  3.663192759564e-01 
  2.965033179049e-01 
  3.099592857709e-01 
  2.535992955854e-01 
  4.005800588906e-01 
  3.870143911016e-01 
  3.734487233126e-01 
  4.147709293867e-01 
  4.012052615977e-01 
  4.289617998827e-01 
  3.721056420631e-01 
  3.726202067115e-01 
  3.731347713598e-01 
  3.910579274995e-01 
  3.915724921478e-01 
  4.100102129359e-01 
  2.563613979067e-01 
  2.423725612355e-01 
  2.283837245644e-01 
  1.931199921114e-01 
  1.791311554403e-01 
  1.298785863161e-01 
  2.529251655106e-01 
  2.959339901777e-01 
  3.389428148449e-01 
  2.402857251020e-01 
  2.832945497691e-01 
  2.276462846934e-01 
  3.373116248409e-01 
  2.947430386215e-01 
  2.521744524020e-01 
  2.831736556386e-01 
  2.406050694192e-01 
  2.290356864364e-01 
  4.091272251587e-01 
  3.924855864193e-01 
  3.758439476799e-01 
  3.928843746099e-01 
  3.762427358705e-01 
  3.766415240610e-01 
  3.136819273070e-01 
  3.085693292136e-01 
  3.034567311201e-01 
  2.461331004170e-01 
  2.410205023235e-01 
  1.785842735269e-01 
  3.145483247728e-01 
  3.616442199885e-01 
  4.087401152042e-01 
  3.104964922320e-01 
  3.575923874477e-01 
  3.064446596911e-01 
  1.774364639218e-01 
  1.792084605174e-01 
  1.809804571130e-01 
  8.889801416975e-02 
  9.067001076535e-02 
  3.595644177156e-04 
  1.823671886424e-01 
  1.800328319175e-01 
  1.776984751925e-01 
  2.433598282445e-01 
  2.410254715196e-01 
  3.043524678466e-01 
  2.499354082963e-01 
  1.281584349137e-01 
  6.381461531139e-03 
  1.244933848300e-01 
  2.716411447445e-03 
 -9.486386362495e-04 
  3.039019890623e-02 
  1.647447706806e-02 
  2.558755229891e-03 
  2.041665542710e-01 
  1.902508324328e-01 
  3.779429096358e-01 
  3.056024389751e-01 
  2.966896409653e-01 
  2.877768429555e-01 
  2.439805741704e-01 
  2.350677761606e-01 
  1.823587093658e-01 
  3.423072327683e-01 
  1.703472003333e-01 
 -1.612832101731e-03 
  1.839003601943e-01 
  1.194032775932e-02 
  2.549348762036e-02 
  3.742390704201e-01 
  3.855380924433e-01 
  3.968371144665e-01 
  3.523509043689e-01 
  3.636499263921e-01 
  3.304627383177e-01 
  3.958451174236e-01 
  3.856452088630e-01 
  3.754453003025e-01 
  3.858480069395e-01 
  3.756480983789e-01 
  3.758508964554e-01 
  2.832069688757e-01 
  3.080713615642e-01 
  3.329357542527e-01 
  2.625311055065e-01 
  2.873954981950e-01 
  2.418552421373e-01 
  3.294588431483e-01 
  3.075100561877e-01 
  2.855612692271e-01 
  3.516891277924e-01 
  3.297403408318e-01 
  3.739194124365e-01 
  2.455214723261e-01 
  2.902310425662e-01 
  3.349406128063e-01 
  2.852822483220e-01 
  3.299918185622e-01 
  3.250430243180e-01 
  2.866213499175e-01 
  2.619844265445e-01 
  2.373475031715e-01 
  2.334706426465e-01 
  2.088337192735e-01 
  1.803199353755e-01 
  3.959837898567e-01 
  4.003972303418e-01 
  4.048106708268e-01 
  3.634559002073e-01 
  3.678693406923e-01 
  3.309280105578e-01 
  3.744514711182e-01 
  3.309169195550e-01 
  2.873823679917e-01 
  3.402097105154e-01 
  2.966751589522e-01 
  3.059679499126e-01 
  4.082045703082e-01 
  3.910881011690e-01 
  3.739716320298e-01 
  3.569873076963e-01 
  3.398708385571e-01 
  3.057700450844e-01 
  2.503450231089e-01 
  2.845367949336e-01 
  3.187285667583e-01 
  1.288893910332e-01 
  1.630811628578e-01 
  7.433758957431e-03 
  3.719063691847e-01 
  3.567858719874e-01 
  3.416653747902e-01 
  3.997438132714e-01 
  3.846233160741e-01 
  4.275812573581e-01 
  5.860323469069e-02 
  1.709555079107e-01 
  2.833077811307e-01 
  1.206180415102e-01 
  2.329703147303e-01 
  1.826328483298e-01 
  4.299345968323e-02 
  1.949343742546e-02 
 -4.006584832308e-03 
  8.553497509621e-02 
  6.203495283844e-02 
  1.280764905092e-01 
  3.917928145938e-02 
  1.746840480760e-02 
 -4.242471844185e-03 
  1.852197450665e-02 
 -3.188902145127e-03 
 -2.135332446069e-03 
  1.303805951985e-01 
  6.580746504496e-02 
  1.234334891412e-03 
  1.710339339354e-01 
  1.064608037819e-01 
  2.116872726723e-01 
  3.208097102027e-01 
  2.660054795439e-01 
  2.112012488850e-01 
  1.589658428251e-01 
  1.041616121662e-01 
 -2.878024552580e-03 
  3.299224540648e-01 
  3.818891114681e-01 
  4.338557688715e-01 
  3.386545646739e-01 
  3.906212220773e-01 
  3.473866752831e-01 
  3.250667503783e-01 
  3.378424749543e-01 
  3.506181995303e-01 
  2.702805539693e-01 
  2.830562785453e-01 
  2.154943575602e-01 
  2.232681669107e-03 
  6.600904398900e-02 
  1.297854063089e-01 
 -9.822094614309e-05 
  6.367814137375e-02 
 -2.429123561393e-03 
  2.578857277445e-01 
  1.937844909228e-01 
  1.296832541012e-01 
  2.369664718238e-01 
  1.728652350022e-01 
  2.160472159032e-01 
 -1.187815712793e-03 
  2.811977775842e-03 
  6.811771264477e-03 
  1.609867206461e-01 
  1.649865141347e-01 
  3.231612570050e-01 
  3.977515636949e-01 
  2.034539726848e-01 
  9.156381674711e-03 
  3.911000739050e-01 
  1.968024828950e-01 
  3.844485841152e-01 
  2.671611555590e-01 
  1.927214220544e-01 
  1.182816885499e-01 
  3.501496668814e-01 
  2.757099333768e-01 
  4.331381782038e-01 
  1.803047290396e-01 
  9.164636840482e-02 
  2.988007770084e-03 
  1.621709164222e-01 
  7.351255578747e-02 
  1.440371038049e-01 
  4.624705349990e-01 
  2.328491606454e-01 
  3.227786291844e-03 
  2.368053393841e-01 
  7.183965030457e-03 
  1.114014376907e-02 
  4.497087859739e-01 
  2.245257053054e-01 
 -6.573753630661e-04 
  2.299219001107e-01 
  4.738819442151e-03 
  1.013501424737e-02 
  3.303207412005e-01 
  1.679397161723e-01 
  5.558691144082e-03 
  3.053594313645e-01 
  1.429784063363e-01 
  2.803981215286e-01 
  3.192692811774e-01 
  1.610810508939e-01 
  2.892820610411e-03 
  3.789100949114e-01 
  2.207218646280e-01 
  4.385509086455e-01 
  3.699170433842e-01 
  3.535903449104e-01 
  3.372636464366e-01 
  3.613478730858e-01 
  3.450211746120e-01 
  3.527787027874e-01 
  4.916627739243e-01 
  2.483114707983e-01 
  4.960167672182e-03 
  2.467831942084e-01 
  3.431891082350e-03 
  1.903614492518e-03 
  4.312341859064e-01 
  4.363464324652e-01 
  4.414586790239e-01 
  4.698077518142e-01 
  4.749199983730e-01 
  5.083813177221e-01 
  4.362619312743e-01 
  4.358922570502e-01 
  4.355225828262e-01 
  3.805338581066e-01 
  3.801641838826e-01 
  3.248057849389e-01 
  4.259935947789e-01 
  3.733182110542e-01 
  3.206428273296e-01 
  4.155131365982e-01 
  3.628377528736e-01 
  4.050326784176e-01 
  3.244257358608e-01 
  3.292456541644e-01 
  3.340655724679e-01 
  3.641906865660e-01 
  3.690106048696e-01 
  4.039556372712e-01 
  4.114549344196e-01 
  4.041892662003e-01 
  3.969235979810e-01 
  4.598816503807e-01 
  4.526159821614e-01 
  5.083083663418e-01 
  5.086652629964e-01 
  5.384388695030e-01 
  5.682124760097e-01 
  4.595681696787e-01 
  4.893417761854e-01 
  4.104710763610e-01 
  5.083844724815e-01 
  4.778286403491e-01 
  4.472728082167e-01 
  4.986219474055e-01 
  4.680661152731e-01 
  4.888594223295e-01 
  4.292101617242e-01 
  4.672203719375e-01 
  5.052305821508e-01 
  4.135589094398e-01 
  4.515691196531e-01 
  3.979076571555e-01 
  4.860639280553e-01 
  4.722048280805e-01 
  4.583457281057e-01 
  5.302452935838e-01 
  5.163861936090e-01 
  5.744266591123e-01 
  4.888022061759e-01 
  4.733727708203e-01 
  4.579433354646e-01 
  2.531131357754e-01 
  2.376837004197e-01 
  1.742406537485e-02 
  4.391617641425e-01 
  5.052101045125e-01 
  5.712584448824e-01 
  5.156871440038e-01 
  5.817354843737e-01 
  5.922125238650e-01 
  5.710456429230e-01 
  5.030046517049e-01 
  4.349636604868e-01 
  4.891676225629e-01 
  4.211266313448e-01 
  4.072896022029e-01 
  3.796662596785e-01 
  4.045592567937e-01 
  4.294522539089e-01 
  4.280775563686e-01 
  4.529705534838e-01 
  4.764888530587e-01 
  4.281507886386e-01 
  4.033257264693e-01 
  3.785006643001e-01 
  3.725990470641e-01 
  3.477739848949e-01 
  3.170473054897e-01 
  5.816714613007e-01 
  5.784142231334e-01 
  5.751569849661e-01 
  5.185200523763e-01 
  5.152628142090e-01 
  4.553686434519e-01 
  4.875997482723e-01 
  5.274439653067e-01 
  5.672881823411e-01 
  4.975045187473e-01 
  5.373487357817e-01 
  5.074092892224e-01 
  9.161795573432e-03 
  2.333704709271e-01 
  4.575791462807e-01 
  2.485603711651e-01 
  4.727690465187e-01 
  4.879589467568e-01 