# vtk DataFile Version 2
NuDG++ 2D simulation
ASCII
DATASET UNSTRUCTURED_GRID

POINTS 7854 double
 -1.656250060000e-01  -2.000000030000e-01  0.0
 -1.725000054000e-01  -1.908888817000e-01  0.0
 -1.793750048000e-01  -1.817777604000e-01  0.0
 -1.862500042000e-01  -1.726666391000e-01  0.0
 -1.931250036000e-01  -1.635555178000e-01  0.0
 -2.000000030000e-01  -1.544443965000e-01  0.0
 -1.725000054000e-01  -2.000000030000e-01  0.0
 -1.793750048000e-01  -1.908888817000e-01  0.0
 -1.862500042000e-01  -1.817777604000e-01  0.0
 -1.931250036000e-01  -1.726666391000e-01  0.0
 -2.000000030000e-01  -1.635555178000e-01  0.0
 -1.793750048000e-01  -2.000000030000e-01  0.0
 -1.862500042000e-01  -1.908888817000e-01  0.0
 -1.931250036000e-01  -1.817777604000e-01  0.0
 -2.000000030000e-01  -1.726666391000e-01  0.0
 -1.862500042000e-01  -2.000000030000e-01  0.0
 -1.931250036000e-01  -1.908888817000e-01  0.0
 -2.000000030000e-01  -1.817777604000e-01  0.0
 -1.931250036000e-01  -2.000000030000e-01  0.0
 -2.000000030000e-01  -1.908888817000e-01  0.0
 -2.000000030000e-01  -2.000000030000e-01  0.0
 -6.428571790000e-02  -1.700000018000e-01  0.0
 -7.080357372400e-02  -1.760000020400e-01  0.0
 -7.732142954800e-02  -1.820000022800e-01  0.0
 -8.383928537200e-02  -1.880000025200e-01  0.0
 -9.035714119600e-02  -1.940000027600e-01  0.0
 -9.687499702000e-02  -2.000000030000e-01  0.0
 -6.392857432000e-02  -1.760000020400e-01  0.0
 -7.044643014400e-02  -1.820000022800e-01  0.0
 -7.696428596800e-02  -1.880000025200e-01  0.0
 -8.348214179200e-02  -1.940000027600e-01  0.0
 -8.999999761600e-02  -2.000000030000e-01  0.0
 -6.357143074000e-02  -1.820000022800e-01  0.0
 -7.008928656400e-02  -1.880000025200e-01  0.0
 -7.660714238800e-02  -1.940000027600e-01  0.0
 -8.312499821200e-02  -2.000000030000e-01  0.0
 -6.321428716000e-02  -1.880000025200e-01  0.0
 -6.973214298400e-02  -1.940000027600e-01  0.0
 -7.624999880800e-02  -2.000000030000e-01  0.0
 -6.285714358000e-02  -1.940000027600e-01  0.0
 -6.937499940400e-02  -2.000000030000e-01  0.0
 -6.250000000000e-02  -2.000000030000e-01  0.0
 -2.000000030000e-01  -1.544443965000e-01  0.0
 -1.900000036000e-01  -1.478412374800e-01  0.0
 -1.800000042000e-01  -1.412380784600e-01  0.0
 -1.700000048000e-01  -1.346349194400e-01  0.0
 -1.600000054000e-01  -1.280317604200e-01  0.0
 -1.500000060000e-01  -1.214286014000e-01  0.0
 -2.000000030000e-01  -1.453332975600e-01  0.0
 -1.900000036000e-01  -1.387301385400e-01  0.0
 -1.800000042000e-01  -1.321269795200e-01  0.0
 -1.700000048000e-01  -1.255238205000e-01  0.0
 -1.600000054000e-01  -1.189206614800e-01  0.0
 -2.000000030000e-01  -1.362221986200e-01  0.0
 -1.900000036000e-01  -1.296190396000e-01  0.0
 -1.800000042000e-01  -1.230158805800e-01  0.0
 -1.700000048000e-01  -1.164127215600e-01  0.0
 -2.000000030000e-01  -1.271110996800e-01  0.0
 -1.900000036000e-01  -1.205079406600e-01  0.0
 -1.800000042000e-01  -1.139047816400e-01  0.0
 -2.000000030000e-01  -1.180000007400e-01  0.0
 -1.900000036000e-01  -1.113968417200e-01  0.0
 -2.000000030000e-01  -1.088889018000e-01  0.0
 -1.500000060000e-01  -1.214286014000e-01  0.0
 -1.600000054000e-01  -1.280317604200e-01  0.0
 -1.700000048000e-01  -1.346349194400e-01  0.0
 -1.800000042000e-01  -1.412380784600e-01  0.0
 -1.900000036000e-01  -1.478412374800e-01  0.0
 -2.000000030000e-01  -1.544443965000e-01  0.0
 -1.500000060000e-01  -1.311428814800e-01  0.0
 -1.600000054000e-01  -1.377460405000e-01  0.0
 -1.700000048000e-01  -1.443491995200e-01  0.0
 -1.800000042000e-01  -1.509523585400e-01  0.0
 -1.900000036000e-01  -1.575555175600e-01  0.0
 -1.500000060000e-01  -1.408571615600e-01  0.0
 -1.600000054000e-01  -1.474603205800e-01  0.0
 -1.700000048000e-01  -1.540634796000e-01  0.0
 -1.800000042000e-01  -1.606666386200e-01  0.0
 -1.500000060000e-01  -1.505714416400e-01  0.0
 -1.600000054000e-01  -1.571746006600e-01  0.0
 -1.700000048000e-01  -1.637777596800e-01  0.0
 -1.500000060000e-01  -1.602857217200e-01  0.0
 -1.600000054000e-01  -1.668888807400e-01  0.0
 -1.500000060000e-01  -1.700000018000e-01  0.0
 -1.500000060000e-01  -7.285714149000e-02  0.0
 -1.600000054000e-01  -8.006349355200e-02  0.0
 -1.700000048000e-01  -8.726984561400e-02  0.0
 -1.800000042000e-01  -9.447619767600e-02  0.0
 -1.900000036000e-01  -1.016825497380e-01  0.0
 -2.000000030000e-01  -1.088889018000e-01  0.0
 -1.500000060000e-01  -8.257143347200e-02  0.0
 -1.600000054000e-01  -8.977778553400e-02  0.0
 -1.700000048000e-01  -9.698413759600e-02  0.0
 -1.800000042000e-01  -1.041904896580e-01  0.0
 -1.900000036000e-01  -1.113968417200e-01  0.0
 -1.500000060000e-01  -9.228572545400e-02  0.0
 -1.600000054000e-01  -9.949207751600e-02  0.0
 -1.700000048000e-01  -1.066984295780e-01  0.0
 -1.800000042000e-01  -1.139047816400e-01  0.0
 -1.500000060000e-01  -1.020000174360e-01  0.0
 -1.600000054000e-01  -1.092063694980e-01  0.0
 -1.700000048000e-01  -1.164127215600e-01  0.0
 -1.500000060000e-01  -1.117143094180e-01  0.0
 -1.600000054000e-01  -1.189206614800e-01  0.0
 -1.500000060000e-01  -1.214286014000e-01  0.0
  1.832975030000e+00  -4.625000060000e-02  0.0
  1.841380024000e+00  -7.700000108000e-02  0.0
  1.849785018000e+00  -1.077500015600e-01  0.0
  1.858190012000e+00  -1.385000020400e-01  0.0
  1.866595006000e+00  -1.692500025200e-01  0.0
  1.875000000000e+00  -2.000000030000e-01  0.0
  1.866380024000e+00  -5.649999976400e-02  0.0
  1.874785018000e+00  -8.725000024400e-02  0.0
  1.883190012000e+00  -1.180000007240e-01  0.0
  1.891595006000e+00  -1.487500012040e-01  0.0
  1.900000000000e+00  -1.795000016840e-01  0.0
  1.899785018000e+00  -6.674999892800e-02  0.0
  1.908190012000e+00  -9.749999940800e-02  0.0
  1.916595006000e+00  -1.282499998880e-01  0.0
  1.925000000000e+00  -1.590000003680e-01  0.0
  1.933190012000e+00  -7.699999809200e-02  0.0
  1.941595006000e+00  -1.077499985720e-01  0.0
  1.950000000000e+00  -1.384999990520e-01  0.0
  1.966595006000e+00  -8.724999725600e-02  0.0
  1.975000000000e+00  -1.179999977360e-01  0.0
  2.000000000000e+00  -9.749999642000e-02  0.0
 -1.500000060000e-01  -1.700000018000e-01  0.0
 -1.444000050800e-01  -1.630000025200e-01  0.0
 -1.388000041600e-01  -1.560000032400e-01  0.0
 -1.332000032400e-01  -1.490000039600e-01  0.0
 -1.276000023200e-01  -1.420000046800e-01  0.0
 -1.220000014000e-01  -1.350000054000e-01  0.0
 -1.500000060000e-01  -1.602857217200e-01  0.0
 -1.444000050800e-01  -1.532857224400e-01  0.0
 -1.388000041600e-01  -1.462857231600e-01  0.0
 -1.332000032400e-01  -1.392857238800e-01  0.0
 -1.276000023200e-01  -1.322857246000e-01  0.0
 -1.500000060000e-01  -1.505714416400e-01  0.0
 -1.444000050800e-01  -1.435714423600e-01  0.0
 -1.388000041600e-01  -1.365714430800e-01  0.0
 -1.332000032400e-01  -1.295714438000e-01  0.0
 -1.500000060000e-01  -1.408571615600e-01  0.0
 -1.444000050800e-01  -1.338571622800e-01  0.0
 -1.388000041600e-01  -1.268571630000e-01  0.0
 -1.500000060000e-01  -1.311428814800e-01  0.0
 -1.444000050800e-01  -1.241428822000e-01  0.0
 -1.500000060000e-01  -1.214286014000e-01  0.0
  2.849999964000e-01  -2.333333530000e-02  0.0
  2.844999968800e-01  -4.666666836000e-02  0.0
  2.839999973600e-01  -7.000000142000e-02  0.0
  2.834999978400e-01  -9.333333448000e-02  0.0
  2.829999983200e-01  -1.166666675400e-01  0.0
  2.824999988000e-01  -1.400000006000e-01  0.0
  2.979999959200e-01  -3.266666830000e-02  0.0
  2.974999964000e-01  -5.600000136000e-02  0.0
  2.969999968800e-01  -7.933333442000e-02  0.0
  2.964999973600e-01  -1.026666674800e-01  0.0
  2.959999978400e-01  -1.260000005400e-01  0.0
  3.109999954400e-01  -4.200000130000e-02  0.0
  3.104999959200e-01  -6.533333436000e-02  0.0
  3.099999964000e-01  -8.866666742000e-02  0.0
  3.094999968800e-01  -1.120000004800e-01  0.0
  3.239999949600e-01  -5.133333430000e-02  0.0
  3.234999954400e-01  -7.466666736000e-02  0.0
  3.229999959200e-01  -9.800000042000e-02  0.0
  3.369999944800e-01  -6.066666730000e-02  0.0
  3.364999949600e-01  -8.400000036000e-02  0.0
  3.499999940000e-01  -7.000000030000e-02  0.0
 -1.071429029000e-01  -1.700000018000e-01  0.0
 -9.857146590000e-02  -1.700000018000e-01  0.0
 -9.000002890000e-02  -1.700000018000e-01  0.0
 -8.142859190000e-02  -1.700000018000e-01  0.0
 -7.285715490000e-02  -1.700000018000e-01  0.0
 -6.428571790000e-02  -1.700000018000e-01  0.0
 -1.037143230360e-01  -1.630000025200e-01  0.0
 -9.514288603600e-02  -1.630000025200e-01  0.0
 -8.657144903600e-02  -1.630000025200e-01  0.0
 -7.800001203600e-02  -1.630000025200e-01  0.0
 -6.942857503600e-02  -1.630000025200e-01  0.0
 -1.002857431720e-01  -1.560000032400e-01  0.0
 -9.171430617200e-02  -1.560000032400e-01  0.0
 -8.314286917200e-02  -1.560000032400e-01  0.0
 -7.457143217200e-02  -1.560000032400e-01  0.0
 -9.685716330800e-02  -1.490000039600e-01  0.0
 -8.828572630800e-02  -1.490000039600e-01  0.0
 -7.971428930800e-02  -1.490000039600e-01  0.0
 -9.342858344400e-02  -1.420000046800e-01  0.0
 -8.485714644400e-02  -1.420000046800e-01  0.0
 -9.000000358000e-02  -1.350000054000e-01  0.0
 -1.312499940000e-01  -2.000000030000e-01  0.0
 -1.264285757800e-01  -1.940000027600e-01  0.0
 -1.216071575600e-01  -1.880000025200e-01  0.0
 -1.167857393400e-01  -1.820000022800e-01  0.0
 -1.119643211200e-01  -1.760000020400e-01  0.0
 -1.071429029000e-01  -1.700000018000e-01  0.0
 -1.349999964000e-01  -1.940000027600e-01  0.0
 -1.301785781800e-01  -1.880000025200e-01  0.0
 -1.253571599600e-01  -1.820000022800e-01  0.0
 -1.205357417400e-01  -1.760000020400e-01  0.0
 -1.157143235200e-01  -1.700000018000e-01  0.0
 -1.387499988000e-01  -1.880000025200e-01  0.0
 -1.339285805800e-01  -1.820000022800e-01  0.0
 -1.291071623600e-01  -1.760000020400e-01  0.0
 -1.242857441400e-01  -1.700000018000e-01  0.0
 -1.425000012000e-01  -1.820000022800e-01  0.0
 -1.376785829800e-01  -1.760000020400e-01  0.0
 -1.328571647600e-01  -1.700000018000e-01  0.0
 -1.462500036000e-01  -1.760000020400e-01  0.0
 -1.414285853800e-01  -1.700000018000e-01  0.0
 -1.500000060000e-01  -1.700000018000e-01  0.0
[...]
POINT_DATA 7854
SCALARS field1 double 1
LOOKUP_TABLE default
  2.668621571872e-05 
  5.099182223701e-04 
  3.905707600068e-04 
  4.212751724776e-04 
  4.268929226823e-04 
  5.199197615913e-04 
  1.755754333331e-05 
  4.362114395027e-04 
  3.250909092095e-04 
  3.548292154763e-04 
  4.035420945426e-04 
  4.797128435418e-06 
  3.495562940414e-04 
  2.588414197652e-04 
  3.139543455772e-04 
  1.685611093000e-05 
  2.260201550898e-04 
  2.110307109991e-04 
  7.943801530591e-06 
  9.975102611089e-05 
  1.124940963369e-06 
  1.013536776854e-03 
  8.535191245261e-04 
  8.763977201535e-04 
  8.150594884932e-04 
  8.644284763721e-04 
  2.192416369924e-05 
  8.478660041276e-04 
  9.115833451939e-04 
  8.064121741279e-04 
  9.091868499080e-04 
  6.826050951613e-06 
  9.268420143188e-04 
  8.153773864830e-04 
  9.237650285232e-04 
  8.845146890215e-06 
  8.213947627193e-04 
  9.394182203272e-04 
  8.237247955843e-06 
  9.500170057895e-04 
  7.578865460054e-06 
  8.925082144745e-06 
  4.955523729586e-04 
  5.887772571127e-04 
  6.546540835018e-04 
  7.030437162395e-04 
  7.616323368629e-04 
  7.871751437404e-04 
  5.728617107736e-04 
  6.513351472692e-04 
  7.114327731052e-04 
  7.585651442605e-04 
  7.946076121587e-04 
  6.571123329620e-04 
  7.177592765066e-04 
  7.628800064877e-04 
  8.105516517987e-04 
  7.321177493778e-04 
  7.753477137057e-04 
  8.200907420551e-04 
  8.038666329330e-04 
  8.314366288517e-04 
  8.621755802029e-04 
  7.870428126335e-04 
  7.627673631058e-04 
  7.056077567564e-04 
  6.527974962325e-04 
  5.903540894911e-04 
  4.984334124006e-04 
  7.468646677292e-04 
  7.219174608873e-04 
  6.605487575073e-04 
  5.910312908856e-04 
  4.953497423228e-04 
  7.247211867544e-04 
  6.791010054177e-04 
  6.108530276778e-04 
  5.345484627746e-04 
  7.011242544740e-04 
  6.363630004096e-04 
  5.747569439756e-04 
  6.658724436074e-04 
  6.097412593275e-04 
  6.744398373270e-04 
  9.291180099541e-04 
  9.323481967906e-04 
  9.218614026297e-04 
  9.111793014257e-04 
  9.022985644360e-04 
  8.636410452270e-04 
  8.985996691768e-04 
  9.066352705791e-04 
  8.899386792878e-04 
  8.681658685695e-04 
  8.317872617075e-04 
  8.818418068759e-04 
  8.708788936346e-04 
  8.478767882318e-04 
  8.225797908578e-04 
  8.637454810168e-04 
  8.337959628242e-04 
  8.082737326937e-04 
  8.415920447137e-04 
  7.941222799955e-04 
  7.902069150341e-04 
  9.001391869531e-04 
  8.328016634778e-04 
  8.419535765956e-04 
  8.313683012132e-04 
  8.515947004003e-04 
  5.488052662033e-04 
  8.539863080077e-04 
  8.482679334892e-04 
  8.408946125986e-04 
  8.310654252744e-04 
  8.414260965432e-04 
  8.533896722982e-04 
  8.445979606824e-04 
  8.382638992230e-04 
  8.270891392850e-04 
  8.558444040616e-04 
  8.454354422309e-04 
  8.415381247145e-04 
  8.514658568404e-04 
  8.220784895792e-04 
  9.358071133340e-04 
  6.726759857648e-04 
  6.798767429103e-04 
  7.168813048040e-04 
  7.471434620672e-04 
  7.800442363045e-04 
  8.148549239958e-04 
  6.659232029429e-04 
  7.067116982138e-04 
  7.442839719074e-04 
  7.758326085888e-04 
  8.001393568348e-04 
  7.007912526354e-04 
  7.356258462086e-04 
  7.675571409690e-04 
  8.019369566375e-04 
  7.258294545805e-04 
  7.681260117462e-04 
  7.933675318683e-04 
  7.503493969941e-04 
  8.008205211937e-04 
  7.892420997367e-04 
  8.390293782626e-04 
  8.365485882377e-04 
  8.388454684545e-04 
  8.447732899614e-04 
  8.397826447017e-04 
  8.942270122596e-04 
  8.351601527175e-04 
  8.387168812780e-04 
  8.415671542254e-04 
  8.429567084239e-04 
  8.445564722656e-04 
  8.392440743998e-04 
  8.406174052659e-04 
  8.440128562668e-04 
  8.457184817530e-04 
  8.398928707564e-04 
  8.422559534798e-04 
  8.414036715460e-04 
  8.459775163706e-04 
  8.427296904208e-04 
  8.482421956953e-04 
  8.364618721746e-04 
  8.283671987206e-04 
  8.447611251634e-04 
  8.663562673215e-04 
  8.889191754050e-04 
  9.690108865561e-04 
  8.030949398253e-04 
  8.297100603094e-04 
  8.492757281362e-04 
  8.700607668304e-04 
  8.851005687546e-04 
  8.228520827882e-04 
  8.455815276920e-04 
  8.647519951055e-04 
  8.837830169516e-04 
  8.357020192895e-04 
  8.584275493579e-04 
  8.753550997074e-04 
  8.522254881030e-04 
  8.714527378335e-04 
  8.689079958647e-04 
  3.755207490993e-05 
  7.417797820130e-04 
  7.088612132749e-04 
  7.603690733869e-04 
  7.551337122135e-04 
  8.542424475724e-04 
  7.062799816377e-04 
  6.811429906959e-04 
  7.176162344918e-04 
  7.614865420588e-04 
  7.787884130551e-04 
  6.376658117359e-04 
  6.827850905994e-04 
  7.261661320600e-04 
  7.503497181407e-04 
  6.547208062633e-04 
  6.962025799273e-04 
  7.187243127049e-04 
  6.270383228583e-04 
  6.876447695459e-04 
  6.745827099704e-04 
  8.123111793643e-04 
  8.183273149402e-04 
  8.330879233529e-04 
  8.455132519900e-04 
  8.571030217211e-04 
  8.679918337150e-04 
  8.247440142773e-04 
  8.335914735894e-04 
  8.456633101081e-04 
  8.569160815712e-04 
  8.698021139008e-04 
  8.383713433199e-04 
  8.467755149658e-04 
  8.568086425807e-04 
  8.682851082571e-04 
  8.503919909180e-04 
  8.586963646731e-04 
  8.668581935022e-04 
  8.610388983252e-04 
  8.679652795646e-04 
  8.719230131544e-04 
  8.676669013384e-04 
  8.569316797954e-04 
  8.456444894196e-04 
  8.331764017437e-04 
  8.179565746080e-04 
  8.137038320285e-04 
  8.527258985237e-04 
  8.423597208361e-04 
  8.269474419465e-04 
  8.157877067386e-04 
  7.966193922386e-04 
  8.364719325144e-04 
  8.277040480077e-04 
  8.117160701290e-04 
  7.956834607470e-04 
  8.240626916775e-04 
  8.097900993918e-04 
  7.942913688796e-04 
  8.031077618890e-04 
  7.905983875937e-04 
  8.399951674604e-04 
  9.243865977065e-04 
  9.087298470429e-04 
  8.968247187290e-04 
  8.872734325442e-04 
  8.782183832027e-04 
  8.714423825517e-04 
  9.177689114332e-04 
  9.034348235092e-04 
  8.902049024674e-04 
  8.788858341168e-04 
  8.679077155791e-04 
  9.089054064650e-04 
  8.942300124777e-04 
  8.802852926260e-04 
  8.669348668318e-04 
  8.982671403503e-04 
  8.823719429428e-04 
  8.681423827806e-04 
  8.861739068721e-04 
  8.696018781909e-04 
  8.688599581816e-04 
  8.118579993534e-04 
  8.255857369874e-04 
  8.388997588739e-04 
  8.508065195354e-04 
  8.605467443217e-04 
  8.726327320257e-04 
  8.007408531100e-04 
  8.199728995304e-04 
  8.350490620489e-04 
  8.491597407234e-04 
  8.606125951703e-04 
  8.007766591816e-04 
  8.171394798647e-04 
  8.343043682317e-04 
  8.463564520385e-04 
  7.951628118593e-04 
  8.157381819596e-04 
  8.341628872701e-04 
  8.006433832839e-04 
  8.157916392510e-04 
  7.936695464333e-04 
  9.246988394179e-04 
  9.176675205928e-04 
  9.088731843696e-04 
  8.983473533890e-04 
  8.859229443794e-04 
  8.698969421333e-04 
  9.348259026968e-04 
  9.270984256053e-04 
  9.160343394626e-04 
  9.037885113996e-04 
  8.889931152098e-04 
  9.460358060501e-04 
  9.348537029472e-04 
  9.229387354962e-04 
  9.087029420991e-04 
  9.559782156442e-04 
  9.429656014055e-04 
  9.279282910451e-04 
  9.654909736452e-04 
  9.471957550744e-04 
  9.718625925642e-04 
  8.451755682983e-04 
  7.906089617414e-04 
  7.946016378053e-04 
  7.954514863906e-04 
  7.966382854714e-04 
  8.135288499444e-04 
  7.779631892015e-04 
  7.671916382400e-04 
  7.705189216407e-04 
  7.740324270519e-04 
  7.802681301099e-04 
  7.483544031508e-04 
  7.408400647567e-04 
  7.459558450387e-04 
  7.474522697719e-04 
  7.179899384232e-04 
  7.116129225204e-04 
  7.172417955318e-04 
  6.858843971327e-04 
  6.801619570369e-04 
  6.726380139417e-04 
  1.007878234952e-05 
  9.795907634322e-06 
  8.835901004409e-06 
  1.014025531743e-05 
  7.875588397132e-06 
  2.139582280426e-05 
  1.013502442098e-03 
  1.036618327085e-03 
  1.031339228308e-03 
  1.025685306710e-03 
  9.868977987120e-04 
  9.163128253523e-04 
  8.958957917042e-04 
  8.932353797874e-04 
  9.070927728178e-04 
  9.929162976486e-04 
  9.989529153270e-04 
  9.854614635064e-04 
  9.287532357400e-04 
  9.293222080772e-04 
  1.118054324998e-03 
  9.291343043922e-04 
  9.013327541787e-04 
  8.829903428598e-04 
  8.625156882614e-04 
  8.377855050867e-04 
  7.941211444542e-04 
  9.123666165618e-04 
  8.928522382532e-04 
  8.690066172854e-04 
  8.420524102207e-04 
  8.162257376711e-04 
  8.935050604061e-04 
  8.752440057656e-04 
  8.580994711214e-04 
  8.346459713153e-04 
  8.858301759981e-04 
  8.665889067113e-04 
  8.454731142443e-04 
  8.750964604141e-04 
  8.607512926221e-04 
  8.718344723356e-04 
  1.118047886209e-03 
  1.065207207665e-03 
  1.030165398272e-03 
  9.920817553589e-04 
  9.516864451186e-04 
  9.283550456828e-04 
  1.107843661450e-03 
  1.054850125904e-03 
  1.013332088247e-03 
  9.762360056270e-04 
  9.602878809038e-04 
  1.077683158075e-03 
  1.036128071815e-03 
  9.961227793365e-04 
  9.655199680348e-04 
  1.050747845426e-03 
  1.012501218269e-03 
  9.690860902657e-04 
  1.020335666172e-03 
  9.766579714419e-04 
  9.895696536164e-04 
  1.115740037963e-03 
  1.074759530104e-03 
  1.031068823595e-03 
  9.780616590663e-04 
  9.212219880451e-04 
  8.644526297724e-04 
  1.064757170082e-03 
  1.031445524906e-03 
  9.929990817249e-04 
  9.486529425941e-04 
  9.039141947092e-04 
  1.028299986104e-03 
  9.901455914075e-04 
  9.557325394652e-04 
  9.135565876670e-04 
  9.949655059712e-04 
  9.605605038196e-04 
  9.208483966166e-04 
  9.516086775731e-04 
  9.313313782401e-04 
  9.299602031125e-04 
  1.115104955837e-03 
  1.109573996725e-03 
  1.079295961831e-03 
  1.051114483105e-03 
  1.019771475327e-03 
  9.907069015547e-04 
  1.144891181919e-03 
  1.133000011711e-03 
  1.099596841038e-03 
  1.070142225504e-03 
  1.025298193029e-03 
  1.177087055023e-03 
  1.154603880316e-03 
  1.114409984202e-03 
  1.083015125750e-03 
  1.203556440297e-03 
  1.171262297454e-03 
  1.130456576968e-03 
  1.221680321244e-03 
  1.185180043261e-03 
  1.241303790145e-03 
  9.898748103264e-04 
  9.776320203205e-04 
  9.700438744334e-04 
  9.638358085910e-04 
  9.555808437476e-04 
  9.302237112975e-04 
  9.534953823720e-04 
  9.494249004687e-04 
  9.432777919205e-04 
  9.332720992245e-04 
  9.248257269553e-04 
  9.180515778714e-04 
  9.173986527532e-04 
  9.176651930815e-04 
  9.145640886628e-04 
  8.879105531837e-04 
  8.898592892920e-04 
  8.912990638534e-04 
  8.560531149148e-04 
  8.658896324010e-04 
  8.232263530964e-04 
  8.038645297510e-04 
  8.492222858532e-04 
  8.871870680810e-04 
  9.242922577400e-04 
  9.553761874015e-04 
  9.897495837435e-04 
  8.063422667143e-04 
  8.477848271277e-04 
  8.859696384854e-04 
  9.197376885205e-04 
  9.536000552041e-04 
  8.059328834170e-04 
  8.486347583983e-04 
  8.851315808435e-04 
  9.180314999967e-04 
  8.107162823050e-04 
  8.508899641259e-04 
  8.874264816214e-04 
  8.186872802638e-04 
  8.557072596679e-04 
  8.237262122472e-04 
  9.872152412309e-04 
  1.000867202125e-03 
  9.965483385306e-04 
  9.959404304743e-04 
  9.997552960734e-04 
  1.001872151748e-03 
  1.025982742247e-03 
  1.036900975940e-03 
  1.041216005460e-03 
  1.043358177819e-03 
  1.038765956566e-03 
  1.080619201458e-03 
  1.086219987384e-03 
  1.091321097441e-03 
  1.091274285283e-03 
  1.131595626645e-03 
  1.137713409953e-03 
  1.142395018829e-03 
  1.184830142219e-03 
  1.195738020295e-03 
  1.245837340850e-03 
  9.298878432472e-04 
  9.143342849027e-04 
  8.987291955200e-04 
  8.867755768451e-04 
  8.777526110167e-04 
  8.699029510585e-04 
  9.243003795120e-04 
  9.055406179841e-04 
  8.887906279224e-04 
  8.732166538927e-04 
  8.611081551159e-04 
  9.140364364942e-04 
  8.912313526528e-04 
  8.691834952747e-04 
  8.513614701094e-04 
  8.919462826740e-04 
  8.667031823538e-04 
  8.410409485473e-04 
  8.656618375668e-04 
  8.316739195912e-04 
  8.244906781036e-04 
  9.688885423959e-04 
  8.706218397340e-04 
  8.643647015467e-04 
  8.596984311045e-04 
  8.630030510350e-04 
  8.736004280748e-04 
  8.174925088291e-04 
  8.525262983741e-04 
  8.495694950346e-04 
  8.536570083160e-04 
  8.461318550317e-04 
  8.561491858731e-04 
  8.442081603793e-04 
  8.435015107925e-04 
  8.354529522432e-04 
  8.278937537706e-04 
  8.291406699159e-04 
  8.246409786153e-04 
  8.419974975862e-04 
  8.356457098543e-04 
  4.241721594265e-04 
  7.822435508220e-04 
  8.136672317431e-04 
  8.341110260863e-04 
  8.503371482820e-04 
  8.631220178180e-04 
  8.724519783118e-04 
  8.131196271223e-04 
  8.354745761917e-04 
  8.515091027974e-04 
  8.637864795702e-04 
  8.724781897630e-04 
  8.450640623258e-04 
  8.593615847989e-04 
  8.697848140255e-04 
  8.775201158067e-04 
  8.776523726845e-04 
  8.843759897603e-04 
  8.888101741472e-04 
  9.096438199789e-04 
  9.092363751604e-04 
  9.406930624704e-04 
  8.696148885794e-04 
  8.778789862959e-04 
  8.868084942212e-04 
  8.985837237036e-04 
  9.141942027166e-04 
  9.298458320589e-04 
  8.816496485723e-04 
  8.828775104187e-04 
  8.892886419850e-04 
  8.976444846705e-04 
  9.121327956738e-04 
  8.838928147532e-04 
  8.848560447835e-04 
  8.865311282773e-04 
  8.933049060404e-04 
  8.836642692007e-04 
  8.807972791463e-04 
  8.840134532421e-04 
  8.809002266990e-04 
  8.743831120247e-04 
  8.709498913182e-04 
  4.357981507098e-04 
  4.964517672692e-04 
  5.460369265629e-04 
  5.883936141323e-04 
  6.250039220183e-04 
  6.603691133626e-04 
  4.657993850109e-04 
  5.189276084208e-04 
  5.646718610125e-04 
  6.050662401012e-04 
  6.387898241880e-04 
  4.998686216868e-04 
  5.490079649077e-04 
  5.893615844966e-04 
  6.260392414413e-04 
  5.421341087224e-04 
  5.853857575190e-04 
  6.195583751851e-04 
  5.892825151478e-04 
  6.253756520423e-04 
  6.518332357894e-04 
  6.597810262905e-04 
  7.040636177751e-04 
  7.417940242857e-04 
  7.743539251441e-04 
  8.026296064989e-04 
  8.250589572075e-04 
  6.748562193379e-04 
  7.170293042546e-04 
  7.516718866147e-04 
  7.812849110110e-04 
  8.067632559147e-04 
  6.973158147974e-04 
  7.338821865438e-04 
  7.644750388285e-04 
  7.907182953565e-04 
  7.240976755151e-04 
  7.540259751288e-04 
  7.796584045463e-04 
  7.532720284914e-04 
  7.774486484317e-04 
  7.823745353659e-04 
  7.820112865688e-04 
  7.662514098144e-04 
  7.429125942861e-04 
  7.162143100217e-04 
  6.851520152008e-04 
  6.521318157317e-04 
  7.530314017998e-04 
  7.288508118504e-04 
  7.004785534903e-04 
  6.665562512954e-04 
  6.253365475798e-04 
  7.240209224053e-04 
  6.944349502179e-04 
  6.599530324617e-04 
  6.195962417580e-04 
  6.972623333340e-04 
  6.645598593686e-04 
  6.259817542470e-04 
  6.747514869886e-04 
  6.388390677178e-04 
  6.601446800702e-04 
  6.597647741956e-04 
  6.792052625891e-04 
  7.086915052572e-04 
  7.408702757608e-04 
  7.758302166731e-04 
  8.062701890331e-04 
  7.041611550403e-04 
  7.220294507902e-04 
  7.469131890212e-04 
  7.755988745750e-04 
  8.059692600856e-04 
  7.418433922911e-04 
  7.583479424432e-04 
  7.806835864398e-04 
  8.061876713732e-04 
  7.744134384995e-04 
  7.893552649878e-04 
  8.105434077941e-04 
  8.028059469330e-04 
  8.182062435374e-04 
  8.244686131780e-04 
  9.243454616809e-04 
  9.308372802492e-04 
  9.365561163779e-04 
  9.405466327041e-04 
  9.427338026985e-04 
  9.409841122206e-04 
  9.143819678967e-04 
  9.176657001614e-04 
  9.184838523069e-04 
  9.157639020199e-04 
  9.091798790835e-04 
  9.040518772551e-04 
  9.027549644251e-04 
  8.983747055230e-04 
  8.888802369653e-04 
  8.932887642464e-04 
  8.875658254842e-04 
  8.774302071835e-04 
  8.822933297211e-04 
  8.725152625287e-04 
  8.722569590212e-04 
  7.825789244867e-04 
  7.774586693930e-04 
  7.797405494139e-04 
  7.906638792257e-04 
  8.067945259239e-04 
  8.249685405109e-04 
  8.137114118390e-04 
  8.061524640894e-04 
  8.090913524784e-04 
  8.181347648545e-04 
  8.319197053988e-04 
  8.341501379586e-04 
  8.296564661675e-04 
  8.315737488349e-04 
  8.409195430739e-04 
  8.502284546193e-04 
  8.470231324355e-04 
  8.510915142890e-04 
  8.633331407682e-04 
  8.609305644347e-04 
  8.715082094157e-04 
  9.244732212305e-04 
  9.141930479013e-04 
  9.040726133603e-04 
  8.931494482019e-04 
  8.820786506759e-04 
  8.708549766706e-04 
  9.087344502523e-04 
  9.021077220586e-04 
  8.945901232840e-04 
  8.874973816377e-04 
  8.814356838551e-04 
  8.968785014123e-04 
  8.924947849778e-04 
  8.886136933596e-04 
  8.842811865458e-04 
  8.872733380629e-04 
  8.849020648674e-04 
  8.836527157814e-04 
  8.783847873022e-04 
  8.806341368862e-04 
  8.708425454429e-04 
  6.601829306229e-04 
  6.251274059268e-04 
  5.884187548151e-04 
  5.460407175289e-04 
  4.965727003875e-04 
  4.356701312149e-04 
  6.379293543765e-04 
  6.015697653932e-04 
  5.606091917052e-04 
  5.131416246283e-04 
  4.587627147094e-04 
  6.217564663998e-04 
  5.833206523180e-04 
  5.400439429102e-04 
  4.899011444601e-04 
  6.117942218956e-04 
  5.724285118279e-04 
  5.289325457659e-04 
  6.082130685940e-04 
  5.694402411930e-04 
  6.096003212037e-04 
  9.720988692505e-04 
  9.467147649634e-04 
  9.277509274157e-04 
  9.084251363761e-04 
  8.888186840967e-04 
  8.700965559914e-04 
  9.500836353525e-04 
  9.321041503503e-04 
  9.114840088947e-04 
  8.935327058924e-04 
  8.720734624234e-04 
  9.345699311689e-04 
  9.171616654373e-04 
  8.986020198559e-04 
  8.763989363915e-04 
  9.218986713192e-04 
  9.017017933287e-04 
  8.840018248652e-04 
  8.982228903451e-04 
  8.855211552999e-04 
  9.642785487336e-04 
  8.631113043498e-04 
  8.501471993859e-04 
  8.470896014286e-04 
  8.469265933072e-04 
  8.460883870091e-04 
  8.723290013848e-04 
  8.389351831193e-04 
  8.408201008551e-04 
  8.387681659984e-04 
  8.364748944855e-04 
  8.184699483829e-04 
  8.413915546165e-04 
  8.388903966073e-04 
  8.379174113814e-04 
  8.350614367593e-04 
  8.355223972176e-04 
  8.356045269975e-04 
  8.340174257723e-04 
  8.352391046901e-04 
  8.368492668025e-04 
  8.261738106451e-04 
  1.009309120860e-03 
  9.891851916298e-04 
  9.766214623240e-04 
  9.695547218984e-04 
  9.560145725901e-04 
  1.004953581772e-03 
  1.011890607364e-03 
  9.995392577181e-04 
  9.862609918364e-04 
  9.756889809361e-04 
  9.616284454837e-04 
  1.020904841736e-03 
  1.000822981246e-03 
  9.900371136880e-04 
  9.769373479624e-04 
  1.024153345906e-03 
  1.006583040097e-03 
  9.881621439165e-04 
  1.023178099899e-03 
  1.002272153968e-03 
  1.026180099055e-03 
  1.007295251273e-03 
  1.001892876177e-03 
  9.974615366493e-04 
  9.893087760530e-04 
  9.785385644422e-04 
  9.714392581629e-04 
  9.776095499820e-04 
  9.743390857333e-04 
  9.668347678794e-04 
  9.605753918199e-04 
  9.499879114120e-04 
  9.537453203027e-04 
  9.503552035336e-04 
  9.432746711988e-04 
  9.342845415887e-04 
  9.342487338854e-04 
  9.278309396730e-04 
  9.219182720322e-04 
  9.093432022758e-04 
  8.980701512345e-04 
  9.652081857729e-04 
  9.242553513655e-04 
  9.419546092387e-04 
  9.638244168704e-04 
  9.931273102260e-04 
  1.030827522983e-03 
  1.083005017916e-03 
  9.307093161350e-04 
  9.504247040820e-04 
  9.761486846284e-04 
  1.011054232600e-03 
  1.057195931276e-03 
  9.365130250239e-04 
  9.584940360938e-04 
  9.889977494232e-04 
  1.031680183417e-03 
  9.404336776160e-04 
  9.659299578360e-04 
  1.003313641118e-03 
  9.427228031512e-04 
  9.719814198395e-04 
  9.405374143502e-04 
  1.083054824321e-03 
  1.030837240042e-03 
  9.931432649303e-04 
  9.638323652222e-04 
  9.420120742453e-04 
  9.242923410650e-04 
  1.053459712256e-03 
  1.013228261826e-03 
  9.812760946285e-04 
  9.558267549859e-04 
  9.346762641015e-04 
  1.029766623047e-03 
  9.962199371246e-04 
  9.688661298025e-04 
  9.457683653880e-04 
  1.008856993081e-03 
  9.798744576139e-04 
  9.558207142291e-04 
  9.894223017334e-04 
  9.651309410693e-04 
  9.713190335056e-04 
  1.174647778185e-03 
  1.163061169890e-03 
  1.148193607206e-03 
  1.130098354859e-03 
  1.107746592343e-03 
  1.083884635536e-03 
  1.115330560905e-03 
  1.104014754018e-03 
  1.089482195675e-03 
  1.072355400961e-03 
  1.053374565553e-03 
  1.068365196016e-03 
  1.057436326622e-03 
  1.044186680742e-03 
  1.029876587424e-03 
  1.029824891565e-03 
  1.019691554071e-03 
  1.008818003774e-03 
  9.989859998788e-04 
  9.894733794179e-04 
  9.708256650807e-04 
  1.206713959962e-03 
  1.125079221983e-03 
  1.058217877195e-03 