# vtk DataFile Version 2
NuDG++ 2D simulation
ASCII
DATASET UNSTRUCTURED_GRID

POINTS 2244 double
 -1.656250060000e-01  -2.000000030000e-01  0.0
 -1.828125045000e-01  -1.772221997500e-01  0.0
 -2.000000030000e-01  -1.544443965000e-01  0.0
 -1.828125045000e-01  -2.000000030000e-01  0.0
 -2.000000030000e-01  -1.772221997500e-01  0.0
 -2.000000030000e-01  -2.000000030000e-01  0.0
 -6.428571790000e-02  -1.700000018000e-01  0.0
 -8.058035746000e-02  -1.850000024000e-01  0.0
 -9.687499702000e-02  -2.000000030000e-01  0.0
 -6.339285895000e-02  -1.850000024000e-01  0.0
 -7.968749851000e-02  -2.000000030000e-01  0.0
 -6.250000000000e-02  -2.000000030000e-01  0.0
 -2.000000030000e-01  -1.544443965000e-01  0.0
 -1.750000045000e-01  -1.379364989500e-01  0.0
 -1.500000060000e-01  -1.214286014000e-01  0.0
 -2.000000030000e-01  -1.316666491500e-01  0.0
 -1.750000045000e-01  -1.151587516000e-01  0.0
 -2.000000030000e-01  -1.088889018000e-01  0.0
 -1.500000060000e-01  -1.214286014000e-01  0.0
 -1.750000045000e-01  -1.379364989500e-01  0.0
 -2.000000030000e-01  -1.544443965000e-01  0.0
 -1.500000060000e-01  -1.457143016000e-01  0.0
 -1.750000045000e-01  -1.622221991500e-01  0.0
 -1.500000060000e-01  -1.700000018000e-01  0.0
 -1.500000060000e-01  -7.285714149000e-02  0.0
 -1.750000045000e-01  -9.087302164500e-02  0.0
 -2.000000030000e-01  -1.088889018000e-01  0.0
 -1.500000060000e-01  -9.714287144500e-02  0.0
 -1.750000045000e-01  -1.151587516000e-01  0.0
 -1.500000060000e-01  -1.214286014000e-01  0.0
  1.832975030000e+00  -4.625000060000e-02  0.0
  1.853987515000e+00  -1.231250018000e-01  0.0
  1.875000000000e+00  -2.000000030000e-01  0.0
  1.916487515000e+00  -7.187499851000e-02  0.0
  1.937500000000e+00  -1.487499997100e-01  0.0
  2.000000000000e+00  -9.749999642000e-02  0.0
 -1.500000060000e-01  -1.700000018000e-01  0.0
 -1.360000037000e-01  -1.525000036000e-01  0.0
 -1.220000014000e-01  -1.350000054000e-01  0.0
 -1.500000060000e-01  -1.457143016000e-01  0.0
 -1.360000037000e-01  -1.282143034000e-01  0.0
 -1.500000060000e-01  -1.214286014000e-01  0.0
  2.849999964000e-01  -2.333333530000e-02  0.0
  2.837499976000e-01  -8.166666795000e-02  0.0
  2.824999988000e-01  -1.400000006000e-01  0.0
  3.174999952000e-01  -4.666666780000e-02  0.0
  3.162499964000e-01  -1.050000004500e-01  0.0
  3.499999940000e-01  -7.000000030000e-02  0.0
 -1.071429029000e-01  -1.700000018000e-01  0.0
 -8.571431040000e-02  -1.700000018000e-01  0.0
 -6.428571790000e-02  -1.700000018000e-01  0.0
 -9.857145324000e-02  -1.525000036000e-01  0.0
 -7.714286074000e-02  -1.525000036000e-01  0.0
 -9.000000358000e-02  -1.350000054000e-01  0.0
 -1.312499940000e-01  -2.000000030000e-01  0.0
 -1.191964484500e-01  -1.850000024000e-01  0.0
 -1.071429029000e-01  -1.700000018000e-01  0.0
 -1.406250000000e-01  -1.850000024000e-01  0.0
 -1.285714544500e-01  -1.700000018000e-01  0.0
 -1.500000060000e-01  -1.700000018000e-01  0.0
 -1.220000014000e-01  -1.350000054000e-01  0.0
 -1.060000024900e-01  -1.350000054000e-01  0.0
 -9.000000358000e-02  -1.350000054000e-01  0.0
 -1.185000017500e-01  -1.175000034500e-01  0.0
 -1.025000028400e-01  -1.175000034500e-01  0.0
 -1.150000021000e-01  -1.000000015000e-01  0.0
 -9.000000358000e-02  -1.350000054000e-01  0.0
 -1.060000024900e-01  -1.350000054000e-01  0.0
 -1.220000014000e-01  -1.350000054000e-01  0.0
 -9.857145324000e-02  -1.525000036000e-01  0.0
 -1.145714521500e-01  -1.525000036000e-01  0.0
 -1.071429029000e-01  -1.700000018000e-01  0.0
 -7.778175920000e-02  -9.192386270000e-02  0.0
 -9.639088065000e-02  -9.596193210000e-02  0.0
 -1.150000021000e-01  -1.000000015000e-01  0.0
 -8.389088139000e-02  -1.134619340500e-01  0.0
 -1.025000028400e-01  -1.175000034500e-01  0.0
 -9.000000358000e-02  -1.350000054000e-01  0.0
 -1.220000014000e-01  -1.350000054000e-01  0.0
 -1.185000017500e-01  -1.175000034500e-01  0.0
 -1.150000021000e-01  -1.000000015000e-01  0.0
 -1.360000037000e-01  -1.282143034000e-01  0.0
 -1.325000040500e-01  -1.107143014500e-01  0.0
 -1.500000060000e-01  -1.214286014000e-01  0.0
 -7.778175920000e-02  -9.192386270000e-02  0.0
 -8.389088139000e-02  -1.134619340500e-01  0.0
 -9.000000358000e-02  -1.350000054000e-01  0.0
 -6.639088876500e-02  -1.022535823500e-01  0.0
 -7.250001095500e-02  -1.237916537000e-01  0.0
 -5.500001833000e-02  -1.125833020000e-01  0.0
 -1.071429029000e-01  -1.700000018000e-01  0.0
 -1.145714521500e-01  -1.525000036000e-01  0.0
 -1.220000014000e-01  -1.350000054000e-01  0.0
 -1.285714544500e-01  -1.700000018000e-01  0.0
 -1.360000037000e-01  -1.525000036000e-01  0.0
 -1.500000060000e-01  -1.700000018000e-01  0.0
  6.250000093000e-03  -2.000000030000e-01  0.0
  4.062500153650e-02  -2.000000030000e-01  0.0
  7.500000298000e-02  -2.000000030000e-01  0.0
  1.383928512150e-02  -1.850000024000e-01  0.0
  4.821428656500e-02  -1.850000024000e-01  0.0
  2.142857015000e-02  -1.700000018000e-01  0.0
 -1.500000060000e-01  -7.285714149000e-02  0.0
 -1.500000060000e-01  -9.714287144500e-02  0.0
 -1.500000060000e-01  -1.214286014000e-01  0.0
 -1.325000040500e-01  -8.642857149500e-02  0.0
 -1.325000040500e-01  -1.107143014500e-01  0.0
 -1.150000021000e-01  -1.000000015000e-01  0.0
 -2.000000030000e-01  -6.333333254000e-02  0.0
 -1.750000045000e-01  -6.809523701500e-02  0.0
 -1.500000060000e-01  -7.285714149000e-02  0.0
 -1.750000045000e-01  -4.380952660000e-02  0.0
 -1.500000060000e-01  -4.857143107500e-02  0.0
 -1.500000060000e-01  -2.428572066000e-02  0.0
 -2.000000030000e-01  -6.333333254000e-02  0.0
 -2.000000030000e-01  -8.611111717000e-02  0.0
 -2.000000030000e-01  -1.088889018000e-01  0.0
 -1.750000045000e-01  -6.809523701500e-02  0.0
 -1.750000045000e-01  -9.087302164500e-02  0.0
 -1.500000060000e-01  -7.285714149000e-02  0.0
 -2.000000030000e-01  -6.333333254000e-02  0.0
 -1.750000045000e-01  -4.380952660000e-02  0.0
 -1.500000060000e-01  -2.428572066000e-02  0.0
 -2.000000030000e-01  -4.055555630500e-02  0.0
 -1.750000045000e-01  -2.103175036500e-02  0.0
 -2.000000030000e-01  -1.777778007000e-02  0.0
 -1.500000060000e-01  -2.428572066000e-02  0.0
 -1.500000060000e-01  -4.857143107500e-02  0.0
 -1.500000060000e-01  -7.285714149000e-02  0.0
 -1.281259023000e-01  -2.896608505500e-02  0.0
 -1.281259023000e-01  -5.325179547000e-02  0.0
 -1.062517986000e-01  -3.364644945000e-02  0.0
 -1.099999994000e-01   1.996667010000e-08  0.0
 -1.300000027000e-01  -1.214285034666e-02  0.0
 -1.500000060000e-01  -2.428572066000e-02  0.0
 -1.081258990000e-01  -1.682321474166e-02  0.0
 -1.281259023000e-01  -2.896608505500e-02  0.0
 -1.062517986000e-01  -3.364644945000e-02  0.0
 -1.500000060000e-01  -2.428572066000e-02  0.0
 -1.500000060000e-01   0.000000000000e+00  0.0
 -1.500000060000e-01   2.428572066000e-02  0.0
 -1.750000045000e-01  -2.103175036500e-02  0.0
 -1.750000045000e-01   3.253970295000e-03  0.0
 -2.000000030000e-01  -1.777778007000e-02  0.0
 -1.500000060000e-01  -7.285714149000e-02  0.0
 -1.226314045700e-01  -6.892856210000e-02  0.0
 -9.526280314000e-02  -6.499998271000e-02  0.0
 -1.281259023000e-01  -5.325179547000e-02  0.0
 -1.007573008700e-01  -4.932321608000e-02  0.0
 -1.062517986000e-01  -3.364644945000e-02  0.0
  3.499999940000e-01   1.400000006000e-01  0.0
  4.021931737500e-01   1.224999986500e-01  0.0
  4.543863535000e-01   1.049999967000e-01  0.0
  4.187500029500e-01   1.749999970000e-01  0.0
  4.709431827000e-01   1.574999950500e-01  0.0
  4.875000119000e-01   2.099999934000e-01  0.0
 -7.101409137000e-02  -4.349999130000e-02  0.0
 -8.313844725500e-02  -5.424998700500e-02  0.0
 -9.526280314000e-02  -6.499998271000e-02  0.0
 -6.449843011500e-02  -5.250913650000e-02  0.0
 -7.662278600000e-02  -6.325913220500e-02  0.0
 -5.798276886000e-02  -6.151828170000e-02  0.0
 -9.526280314000e-02  -6.499998271000e-02  0.0
 -1.226314045700e-01  -6.892856210000e-02  0.0
 -1.500000060000e-01  -7.285714149000e-02  0.0
 -1.051314026200e-01  -8.249999210500e-02  0.0
 -1.325000040500e-01  -8.642857149500e-02  0.0
 -1.150000021000e-01  -1.000000015000e-01  0.0
 -6.181925908000e-02  -1.656441018000e-02  0.0
 -7.051259093000e-02  -1.954082492500e-02  0.0
 -7.920592278000e-02  -2.251723967000e-02  0.0
 -5.862244405000e-02  -2.428220026000e-02  0.0
 -6.731577590000e-02  -2.725861500500e-02  0.0
 -5.542562902000e-02  -3.199999034000e-02  0.0
 -7.920592278000e-02  -2.251723967000e-02  0.0
 -9.272886069000e-02  -2.808184456000e-02  0.0
 -1.062517986000e-01  -3.364644945000e-02  0.0
 -7.511000707500e-02  -3.300861548500e-02  0.0
 -8.863294498500e-02  -3.857322037500e-02  0.0
 -7.101409137000e-02  -4.349999130000e-02  0.0
 -7.101409137000e-02  -4.349999130000e-02  0.0
 -6.321986019500e-02  -3.774999082000e-02  0.0
 -5.542562902000e-02  -3.199999034000e-02  0.0
 -7.511000707500e-02  -3.300861548500e-02  0.0
 -6.731577590000e-02  -2.725861500500e-02  0.0
 -7.920592278000e-02  -2.251723967000e-02  0.0
 -7.920592278000e-02  -2.251723967000e-02  0.0
 -9.460296109000e-02  -1.125860985166e-02  0.0
 -1.099999994000e-01   1.996667010000e-08  0.0
 -9.272886069000e-02  -2.808184456000e-02  0.0
 -1.081258990000e-01  -1.682321474166e-02  0.0
 -1.062517986000e-01  -3.364644945000e-02  0.0
 -7.778175920000e-02  -9.192386270000e-02  0.0
 -6.788226403000e-02  -7.672107220000e-02  0.0
 -5.798276886000e-02  -6.151828170000e-02  0.0
 -8.652228117000e-02  -7.846192270500e-02  0.0
 -7.662278600000e-02  -6.325913220500e-02  0.0
 -9.526280314000e-02  -6.499998271000e-02  0.0
 -7.101409137000e-02  -4.349999130000e-02  0.0
 -8.863294498500e-02  -3.857322037500e-02  0.0
 -1.062517986000e-01  -3.364644945000e-02  0.0
 -8.313844725500e-02  -5.424998700500e-02  0.0
 -1.007573008700e-01  -4.932321608000e-02  0.0
 -9.526280314000e-02  -6.499998271000e-02  0.0
 -7.778175920000e-02  -9.192386270000e-02  0.0
 -8.652228117000e-02  -7.846192270500e-02  0.0
 -9.526280314000e-02  -6.499998271000e-02  0.0
 -9.639088065000e-02  -9.596193210000e-02  0.0
 -1.051314026200e-01  -8.249999210500e-02  0.0
 -1.150000021000e-01  -1.000000015000e-01  0.0
[...]
POINT_DATA 2244
SCALARS field1 double 1
LOOKUP_TABLE default
  2.050036213374e-03 
  4.424198678468e-02 
  8.643393735598e-02 
  1.272214691835e-03 
  4.346416526314e-02 
  4.943931702958e-04 
  1.782249424345e-01 
  8.986189043354e-02 
  1.498838432563e-03 
  8.984053599275e-02 
  1.477483991775e-03 
  1.456129550986e-03 
  8.494456814327e-02 
  1.099533117230e-01 
  1.349620553027e-01 
  1.175981528871e-01 
  1.426068964668e-01 
  1.502517376310e-01 
  1.364944540658e-01 
  1.099441523367e-01 
  8.339385060769e-02 
  1.125101376968e-01 
  8.595983596775e-02 
  8.852582132781e-02 
  1.829385419828e-01 
  1.666359974474e-01 
  1.503334529120e-01 
  1.601576600107e-01 
  1.438551154754e-01 
  1.373767780387e-01 
  2.024867456170e-01 
  1.226495826141e-01 
  4.281241961127e-02 
  1.915665271794e-01 
  1.117293641765e-01 
  1.806463087418e-01 
  9.029283736517e-02 
  1.188905388713e-01 
  1.474882403774e-01 
  1.138798369469e-01 
  1.424775384530e-01 
  1.374668365286e-01 
  1.610347734539e-01 
  1.722253116573e-01 
  1.834158498607e-01 
  1.662406929187e-01 
  1.774312311221e-01 
  1.714466123836e-01 
  1.429168277320e-01 
  1.589002814077e-01 
  1.748837350834e-01 
  1.525077207062e-01 
  1.684911743819e-01 
  1.620986136805e-01 
  2.839953922967e-03 
  7.325626760063e-02 
  1.436725812783e-01 
  4.612603077568e-02 
  1.165423444533e-01 
  8.941210762840e-02 
  1.439500238580e-01 
  1.510273195413e-01 
  1.581046152246e-01 
  1.529724158429e-01 
  1.600497115262e-01 
  1.619948078278e-01 
  1.597336220358e-01 
  1.519990117326e-01 
  1.442644014294e-01 
  1.515744771321e-01 
  1.438398668289e-01 
  1.434153322284e-01 
  1.860864622130e-01 
  1.737419823664e-01 
  1.613975025197e-01 
  1.727866787800e-01 
  1.604421989333e-01 
  1.594868953469e-01 
  1.444783460748e-01 
  1.541989791892e-01 
  1.639196123036e-01 
  1.420576793355e-01 
  1.517783124498e-01 
  1.396370125961e-01 
  1.864372627039e-01 
  1.739260138256e-01 
  1.614147649472e-01 
  1.945531292593e-01 
  1.820418803810e-01 
  2.026689958147e-01 
  1.422874046655e-01 
  1.444071110283e-01 
  1.465268173911e-01 
  1.163947353291e-01 
  1.185144416919e-01 
  9.050206599261e-02 
  1.555324486639e-03 
  2.171380948831e-03 
  2.787437411024e-03 
  1.036541472866e-01 
  1.042702037488e-01 
  2.057529700866e-01 
  1.823304320173e-01 
  1.608074957083e-01 
  1.392845593993e-01 
  1.737715657169e-01 
  1.522486294079e-01 
  1.652126994165e-01 
  1.958845924531e-01 
  1.883814398317e-01 
  1.808782872103e-01 
  1.980666478919e-01 
  1.905634952704e-01 
  2.002487033306e-01 
  1.947551769938e-01 
  1.730496757208e-01 
  1.513441744478e-01 
  1.884445626561e-01 
  1.667390613831e-01 
  1.821339483184e-01 
  1.960014360395e-01 
  1.986037968272e-01 
  2.012061576149e-01 
  2.067659236231e-01 
  2.093682844108e-01 
  2.175304112066e-01 
  1.985681651937e-01 
  1.903573922045e-01 
  1.821466192153e-01 
  1.765158290098e-01 
  1.683050560206e-01 
  1.544634928258e-01 
  1.348362970042e-01 
  1.663242795496e-01 
  1.978122620950e-01 
  1.445566689074e-01 
  1.760446514528e-01 
  1.542770408106e-01 
  1.972659395318e-01 
  1.977094042495e-01 
  1.981528689672e-01 
  2.082599338072e-01 
  2.087033985249e-01 
  2.192539280825e-01 
  1.815807178526e-01 
  1.737148833791e-01 
  1.658490489057e-01 
  1.678103177778e-01 
  1.599444833044e-01 
  1.540399177030e-01 
  1.879685517463e-01 
  1.954885283844e-01 
  2.030085050225e-01 
  1.128493262946e-01 
  1.203693029327e-01 
  3.773010084286e-02 
  1.342980829625e-01 
  1.515728708013e-01 
  1.688476586401e-01 
  1.568567656706e-01 
  1.741315535094e-01 
  1.794154483786e-01 
  1.668307975235e-01 
  1.741632727099e-01 
  1.814957478963e-01 
  1.661437725439e-01 
  1.734762477303e-01 
  1.654567475644e-01 
  4.471591794275e-02 
  7.427572253727e-02 
  1.038355271318e-01 
  5.941714235313e-02 
  8.897694694765e-02 
  7.411836676351e-02 
  1.023816939304e-01 
  1.277863142594e-01 
  1.531909345884e-01 
  1.181486931681e-01 
  1.435533134971e-01 
  1.339156924058e-01 
  1.337778211161e-01 
  1.045743080210e-01 
  7.537079492589e-02 
  1.183054675433e-01 
  8.910195444818e-02 
  1.028331139705e-01 
  1.018418674998e-01 
  1.179814508508e-01 
  1.341210342018e-01 
  1.278042535754e-01 
  1.439438369264e-01 
  1.537666396510e-01 
  1.868727554784e-01 
  1.836398575495e-01 
  1.804069596206e-01 
  1.776687382305e-01 
  1.744358403016e-01 
  1.684647209826e-01 
  1.348961296232e-01 
  1.438942053240e-01 
  1.528922810248e-01 
  1.516842904284e-01 
  1.606823661292e-01 
  1.684724512336e-01 
  1.851044122134e-01 
  1.766051910174e-01 
  1.681059698215e-01 
  1.742471411699e-01 
  1.657479199740e-01 
  1.633898701265e-01 
  1.030820740310e-01 
  7.395438473891e-02 
  4.482669544680e-02 
  9.299600810762e-02 
  6.386831881551e-02 
  8.290994218422e-02 
  2.006225406071e-01 
  1.817498629460e-01 
  1.628771852849e-01 
  1.878080633391e-01 
  1.689353856780e-01 
  1.749935860711e-01 
  1.821525805473e-01 
  1.861497782646e-01 
  1.901469759818e-01 
  1.669486720352e-01 
  1.709458697525e-01 
  1.517447635231e-01 
  2.093217243492e-01 
  2.035138487365e-01 
  1.977059731238e-01 
  2.155562342270e-01 
  2.097483586143e-01 
  2.217907441048e-01 
  2.068695725313e-01 
  2.028682867868e-01 
  1.988670010422e-01 
  1.910825194975e-01 
  1.870812337529e-01 
  1.752954664637e-01 
  1.860906042534e-01 
  2.023494367148e-01 
  2.186082691763e-01 
  1.831236823036e-01 
  1.993825147650e-01 
  1.801567603538e-01 
  2.193507416598e-01 
  2.027137906577e-01 
  1.860768396557e-01 
  2.105070174622e-01 
  1.938700664602e-01 
  2.016632932647e-01 
  2.527780112847e-01 
  2.370934789098e-01 
  2.214089465350e-01 
  2.260063498784e-01 
  2.103218175036e-01 
  1.992346884721e-01 
  1.823040214851e-01 
  1.808411455239e-01 
  1.793782695627e-01 
  2.020007614811e-01 
  2.005378855200e-01 
  2.216975014772e-01 
  1.978889323378e-01 
  2.029502334142e-01 
  2.080115344906e-01 
  2.255385266193e-01 
  2.305998276956e-01 
  2.531881209007e-01 
  2.085034912061e-01 
  1.920220973795e-01 
  1.755407035528e-01 
  2.027930629882e-01 
  1.863116691615e-01 
  1.970826347702e-01 
  2.672992699310e-01 
  2.609918102384e-01 
  2.546843505459e-01 
  2.382157119136e-01 
  2.319082522210e-01 
  2.091321538962e-01 
  1.209246345973e-03 
  1.088729744511e-01 
  2.165367025562e-01 
  9.214265623624e-04 
  1.085851546675e-01 
  6.336067787518e-04 
  2.579786551067e-01 
  2.371652125639e-01 
  2.163517700210e-01 
  2.331569145004e-01 
  2.123434719575e-01 
  2.083351738940e-01 
  2.171818383633e-01 
  2.373122082806e-01 
  2.574425781980e-01 
  2.416875528424e-01 
  2.618179227598e-01 
  2.661932673216e-01 
  2.074834798554e-01 
  2.119116404278e-01 
  2.163398010002e-01 
  1.055165884516e-01 
  1.099447490240e-01 
  3.549697047834e-03 
  2.551880795469e-01 
  2.330554981561e-01 
  2.109229167653e-01 
  2.391561443451e-01 
  2.170235629543e-01 
  2.231242091433e-01 
  2.545439916019e-01 
  2.350393774255e-01 
  2.155347632492e-01 
  2.600508442137e-01 
  2.405462300373e-01 
  2.655576968255e-01 
  2.657343985133e-01 
  2.378776227965e-01 
  2.100208470797e-01 
  2.423520098986e-01 
  2.144952341818e-01 
  2.189696212839e-01 
  1.974946501902e-01 
  1.983840976602e-01 
  1.992735451301e-01 
  2.095776902794e-01 
  2.104671377494e-01 
  2.216607303686e-01 
  1.814056598096e-01 
  2.028100036395e-01 
  2.242143474694e-01 
  1.956834733258e-01 
  2.170878171557e-01 
  2.099612868420e-01 
 -1.083567434310e-03 
  3.806597377368e-02 
  7.721551498166e-02 
  1.430327588546e-03 
  4.057986879653e-02 
  3.944222611401e-03 
  7.631384596454e-02 
  1.044269888573e-01 
  1.325401317501e-01 
  1.055202606749e-01 
  1.336334035677e-01 
  1.347266753853e-01 
  1.708427073448e-01 
  8.860185021030e-02 
  6.360993075806e-03 
  8.487070074920e-02 
  2.629843614700e-03 
 -1.101305846406e-03 
 -2.122375518129e-03 
  6.544099607869e-03 
  1.521057473387e-02 
  2.096568529709e-02 
  2.963216042308e-02 
  4.405374611230e-02 
  4.609265569160e-04 
 -1.353497927857e-03 
 -3.167922412629e-03 
  3.633840884035e-02 
  3.452398435558e-02 
  7.221589112379e-02 
  1.564927802474e-01 
  7.949075820545e-02 
  2.488736163470e-03 
  1.282850690463e-01 
  5.128304700433e-02 
  1.000773578452e-01 
  7.689457328787e-02 
  1.070459172705e-01 
  1.371972612531e-01 
  4.104673079738e-02 
  7.119807477997e-02 
  5.198888306889e-03 
 -3.848291638206e-03 
  2.014312712073e-02 
  4.413454587967e-02 
  3.417245685352e-02 
  5.816387561245e-02 
  7.219320534524e-02 
  1.607575767923e-03 
  1.712557481737e-03 
  1.817539195552e-03 
  1.056671541359e-01 
  1.057721358497e-01 
  2.097267325039e-01 
  2.306834309622e-03 
  1.104831939025e-01 
  2.186595534954e-01 
  2.131124232863e-03 
  1.103074838258e-01 
  1.955414156105e-03 
  2.081049998812e-01 
  1.081332317152e-01 
  8.161463549164e-03 
  1.956710094386e-01 
  9.569924127255e-02 
  1.832370189959e-01 
  1.028530226994e-03 
  7.146826231321e-02 
  1.419079943994e-01 
  2.653462927056e-03 
  7.309319501327e-02 
  4.278395627118e-03 
  4.119028233811e-03 
  9.282914729467e-02 
  1.815392663555e-01 
  1.061758174816e-01 
  1.948859365425e-01 
  2.082326067294e-01 
  1.983186171541e-01 
  1.026875030195e-01 
  7.056388884881e-03 
  1.992741431180e-01 
  1.036430289834e-01 
  2.002296690819e-01 
  1.466834300911e-01 
  7.393158964947e-02 
  1.179749207814e-03 
  7.473892480044e-02 
  1.987084358787e-03 
  2.794419509761e-03 
  6.919228527979e-03 
  7.344875508574e-02 
  1.399782816435e-01 
  9.375614662531e-02 
  1.602856731831e-01 
  1.805930647226e-01 
  1.368717397747e-01 
  1.585116455998e-01 
  1.801515514250e-01 
  1.591256877144e-01 
  1.807655935395e-01 
  1.813796356540e-01 
  1.786414202500e-01 
  9.270192961106e-02 
  6.762438972095e-03 
  1.870576831942e-01 
  1.011181925553e-01 
  1.954739461384e-01 
  2.644318776714e-01 
  2.416307077413e-01 
  2.188295378112e-01 
  2.409061008334e-01 
  2.181049309033e-01 
  2.173803239954e-01 
  1.351588146908e-01 
  1.337077139929e-01 
  1.322566132949e-01 
  1.577341132788e-01 
  1.562830125808e-01 
  1.803094118667e-01 
  9.968228671654e-04 
  2.625718951109e-03 
  4.254615035053e-03 
  9.136856289909e-02 
  9.299745898303e-02 
  1.817403029310e-01 
  1.354378469072e-02 
  6.300629912363e-03 
 -9.425248659954e-04 
  6.050271723948e-03 
 -1.192883054410e-03 
 -1.443241242825e-03 
  1.941340731615e-01 
  1.953742753156e-01 
  1.966144774698e-01 
  1.741670260286e-01 
  1.754072281828e-01 
  1.541999788958e-01 
  2.001365436709e-01 
  2.084819754448e-01 
  2.168274072188e-01 
  2.093629896550e-01 
  2.177084214289e-01 
  2.185894356390e-01 
  2.157549913139e-01 
  2.051956593810e-01 
  1.946363274481e-01 
  2.055688150151e-01 
  1.950094830822e-01 
  1.953826387164e-01 
  1.933174442998e-01 
  2.046795210257e-01 
  2.160415977515e-01 
  1.952512782717e-01 
  2.066133549975e-01 
  1.971851122435e-01 
  1.950580371355e-01 
  1.954825522531e-01 
  1.959070673707e-01 
  1.733397437241e-01 
  1.737642588417e-01 
  1.516214503126e-01 
  2.204177752842e-02 
  9.747477270427e-03 
 -2.546822987563e-03 
  1.068818423814e-01 
  9.458754212340e-02 
  1.917219072344e-01 
  1.968976735855e-01 
  1.661559330108e-01 
  1.354141924361e-01 
  1.753290315125e-01 
  1.445872909378e-01 
  1.537603894395e-01 
  1.964988041748e-01 
  1.965709860663e-01 
  1.966431679579e-01 
  1.657334076832e-01 
  1.658055895748e-01 
  1.349680111917e-01 
  1.001292530403e-01 
  1.265395843154e-01 
  1.529499155906e-01 
  1.175209602011e-01 
  1.439312914762e-01 
  1.349126673619e-01 
  1.422633800351e-01 
  1.212063032035e-01 
  1.001492263719e-01 
  1.126691507090e-01 
  9.161207387733e-02 
  8.307492138279e-02 
  1.514982679380e-01 
  1.458886452981e-01 
  1.402790226582e-01 
  1.577368847714e-01 
  1.521272621315e-01 
  1.639755016049e-01 
  1.398908827937e-01 
  1.456985701929e-01 
  1.515062575920e-01 
  1.202874613229e-01 
  1.260951487221e-01 
  1.006840398521e-01 
  1.843254821185e-01 
  1.738928534995e-01 
  1.634602248805e-01 
  1.855172373655e-01 
  1.750846087466e-01 
  1.867089926126e-01 
  1.535076608465e-01 
  1.581232945311e-01 
  1.627389282157e-01 
  1.738425421575e-01 
  1.784581758422e-01 
  1.941774234686e-01 
  1.005517814132e-01 
  9.152879247476e-02 
  8.250580353628e-02 
  7.215230993959e-02 
  6.312932100111e-02 
  4.375283846594e-02 
  9.989770174796e-02 
  1.174238258520e-01 
  1.349499499561e-01 
  9.156394482827e-02 
  1.090900689324e-01 
  8.323018790858e-02 
  1.343640949027e-01 
  1.180245608957e-01 
  1.016850268887e-01 
  1.089455496318e-01 
  9.260601562478e-02 
  8.352700436082e-02 
  1.940146954783e-01 
  1.788016363555e-01 
  1.635885772326e-01 
  1.832131465792e-01 
  1.680000874563e-01 
  1.724115976800e-01 
  1.500483208380e-01 
  1.455406267944e-01 
  1.410329327508e-01 
  1.176143644620e-01 
  1.131066704183e-01 
  8.518040808590e-02 
  1.505788663096e-01 
  1.733381004242e-01 
  1.960973345389e-01 
  1.468071289321e-01 
  1.695663630468e-01 
  1.430353915547e-01 
  8.430960159975e-02 
  9.239368410485e-02 
  1.004777666099e-01 
  4.226145488475e-02 
  5.034553738984e-02 
  2.133081697402e-04 
  1.022400342983e-01 
  9.306529075188e-02 
  8.389054720550e-02 
  1.225268149021e-01 
  1.133520713557e-01 
  1.428135955059e-01 
  1.647185344856e-01 
  8.528358054773e-02 
  5.848626609879e-03 
  8.217158722586e-02 
  2.736633288012e-03 
 -3.753600338561e-04 
  1.660361834811e-02 
  9.227660718952e-03 
  1.851703089797e-03 
  1.081431750760e-01 
  1.007672174468e-01 
  1.996827318038e-01 
  1.446996178562e-01 
  1.476396245343e-01 
  1.505796312123e-01 
  1.236765315535e-01 
  1.266165382315e-01 
  1.026534452508e-01 
  1.820153946512e-01 
  8.967069563119e-02 
 -2.674003388830e-03 
  1.006169727349e-01 
  8.272273714891e-03 
  1.921855081861e-02 
  1.683225073113e-01 
  1.754203629310e-01 
  1.825182185507e-01 
  1.673280865116e-01 
  1.744259421313e-01 
  1.663336657119e-01 
  1.819999914711e-01 
  1.762341530407e-01 
  1.704683146103e-01 
  1.733462782720e-01 
  1.675804398415e-01 
  1.646925650728e-01 
  1.461096596585e-01 
  1.575068751210e-01 
  1.689040905835e-01 
  1.519888011857e-01 
  1.633860166482e-01 
  1.578679427128e-01 
  1.653863660266e-01 
  1.565962701215e-01 
  1.478061742165e-01 
  1.672172064840e-01 
  1.584271105790e-01 
  1.690480469415e-01 
  1.606582022656e-01 
  1.656875842693e-01 
  1.707169662730e-01 
  1.744434106045e-01 
  1.794727926082e-01 
  1.882286189434e-01 
  1.489374444604e-01 
  1.516500839587e-01 
  1.543627234571e-01 
  1.252718935806e-01 
  1.279845330789e-01 
  1.016063427008e-01 
  1.827100082772e-01 
  1.922137183948e-01 
  2.017174285125e-01 
  1.755361259795e-01 
  1.850398360972e-01 
  1.683622436819e-01 
  1.714406608961e-01 
  1.600397774912e-01 
  1.486388940864e-01 
  1.590012035736e-01 
  1.476003201687e-01 
  1.465617462511e-01 
  1.948542011053e-01 
  1.837115112161e-01 
  1.725688213269e-01 
  1.703003460252e-01 
  1.591576561361e-01 
  1.457464909452e-01 
  1.637953886817e-01 
  1.750888994131e-01 
  1.863824101445e-01 
  8.660332233036e-02 
  9.789683306176e-02 
  9.411255979040e-03 
  1.630749800064e-01 
  1.522076927288e-01 
  1.413404054512e-01 
  1.746505953846e-01 
  1.637833081070e-01 
  1.862262107629e-01 
  5.024691786588e-02 
  1.259629799512e-01 
  2.016790420365e-01 
  1.079439791254e-01 
  1.836600412107e-01 
  1.656410403848e-01 
  1.467597472627e-02 
  6.915278375689e-03 
 -8.454179748888e-04 
  2.940091510784e-02 
  2.164021875727e-02 
  4.412585548942e-02 
  1.339129623944e-02 
  5.875708589944e-03 
 -1.639879059549e-03 
  6.481782766372e-03 
 -1.033804883121e-03 
 -4.277307066924e-04 
  4.470268796748e-02 
  2.274354349659e-02 
  7.843990256989e-04 
  6.274127092098e-02 
  4.078212645009e-02 
  8.077985387448e-02 
  1.245962477119e-01 
  1.031000088742e-01 
  8.160377003654e-02 
  6.173308214827e-02 
  4.023684331057e-02 
 -1.130083415398e-03 
  1.280575707861e-01 
  1.579020353602e-01 
  1.877464999342e-01 
  1.354268689669e-01 
  1.652713335409e-01 
  1.427961671476e-01 
  1.266114253383e-01 
  1.352536148367e-01 
  1.438958043350e-01 
  1.044951064253e-01 
  1.131372959237e-01 
  8.237878751235e-02 
  8.912126481893e-04 
  2.282097535120e-02 
  4.475073805421e-02 
  8.349073613667e-05 
  2.201325343915e-02 
 -7.242311759160e-04 
  1.008440723033e-01 
  7.251260628803e-02 
  4.418114027273e-02 
  9.140591555119e-02 
  6.307444953589e-02 
  8.196775879905e-02 
 -8.275880012598e-04 
  3.568797258454e-04 
  1.541347452951e-03 
  6.207277911646e-02 
  6.325724684356e-02 
  1.249731462342e-01 
  2.030286007105e-01 
  1.046185147608e-01 
  6.208428811175e-03 
  1.937267005215e-01 
  9.531661457179e-02 
  1.844248003324e-01 
  1.751939521428e-01 
  1.304402003985e-01 
  8.568644865425e-02 
  1.803375512840e-01 
  1.355837995397e-01 
  1.854811504252e-01 
  8.502695781333e-02 
  4.360207819512e-02 
  2.177198576912e-03 
  8.581791528116e-02 
  4.439303566295e-02 
  8.660887274900e-02 
  1.879509696626e-01 
  9.450497202947e-02 
  1.058974396348e-03 
  9.622459458520e-02 
  2.778596952075e-03 
  4.498219507803e-03 
  1.829359824085e-01 
  9.088001980707e-02 
 -1.175942794327e-03 
  9.298548382016e-02 
  9.295212187652e-04 
  3.034985231858e-03 
  1.710405848184e-01 
  8.805719464357e-02 
  5.073804468745e-03 
  1.593527268434e-01 
  7.636933666855e-02 
  1.476648688683e-01 
  1.247332384850e-01 
  6.239498644497e-02 
  5.673440490810e-05 
  1.522064443514e-01 
  8.986819231136e-02 
  1.796796502178e-01 
  1.641109599844e-01 
  1.710067932083e-01 
  1.779026264323e-01 
  1.716260703798e-01 
  1.785219036038e-01 
  1.791411807752e-01 
  2.153410620563e-01 
  1.087110007109e-01 
  2.080939365550e-03 
  1.089516774860e-01 
  2.321616140577e-03 
  2.562292915605e-03 
  1.867896777469e-01 
  1.839112079680e-01 
  1.810327381892e-01 
  2.053437867685e-01 
  2.024653169896e-01 
  2.238978957901e-01 
  1.791781216044e-01 
  1.837336732088e-01 
  1.882892248132e-01 
  1.528527828318e-01 
  1.574083344362e-01 
  1.265274440592e-01 
  2.045223299699e-01 
  1.943208379462e-01 
  1.841193459224e-01 
  2.018524844539e-01 
  1.916509924302e-01 
  1.991826389379e-01 
  1.861782731981e-01 
  1.786742057197e-01 
  1.711701382413e-01 
  1.927701137230e-01 
  1.852660462445e-01 
  1.993619542478e-01 
  2.020120839896e-01 
  1.926593193810e-01 
  1.833065547723e-01 
  2.126012251340e-01 
  2.032484605254e-01 
  2.231903662784e-01 
  2.239852082506e-01 
  2.401682305226e-01 
  2.563512527946e-01 
  2.124542903353e-01 
  2.286373126073e-01 
  2.009233724199e-01 
  2.239414591101e-01 
  2.032761271347e-01 
  1.826107951592e-01 
  2.179761061226e-01 
  1.973107741472e-01 
  2.120107531352e-01 
  1.868350155774e-01 
  2.046332756173e-01 
  2.224315356571e-01 
  1.852595165281e-01 
  2.030577765679e-01 
  1.836840174787e-01 
  2.116658336351e-01 
  2.134465944649e-01 
  2.152273552948e-01 
  2.355962315721e-01 
  2.373769924020e-01 
  2.595266295091e-01 
  2.122762641530e-01 
  1.990512083202e-01 
  1.858261524873e-01 
  1.095767251648e-01 
  9.635166933196e-02 
  6.877186176619e-03 
  2.095708845227e-01 
  2.336628997725e-01 
  2.577549150223e-01 
  2.370877158687e-01 
  2.611797311185e-01 
  2.646045472147e-01 
  2.571999945162e-01 
  2.326285746275e-01 
  2.080571547388e-01 
  2.283711957784e-01 
  2.037997758898e-01 
  1.995423970407e-01 
  2.071170844435e-01 
  2.073091571716e-01 
  2.075012298998e-01 
  2.158366580116e-01 
  2.160287307397e-01 
  2.245562315797e-01 
  2.059964536431e-01 
  2.063842136101e-01 
  2.067719735772e-01 
  1.943502102605e-01 
  1.947379702275e-01 
  1.827039668778e-01 
  2.628479880346e-01 
  2.610356917530e-01 
  2.592233954713e-01 
  2.391881570290e-01 
  2.373758607474e-01 
  2.155283260234e-01 
  2.122647904758e-01 
  2.348102197197e-01 
  2.573556489635e-01 
  2.178149048127e-01 
  2.403603340565e-01 
  2.233650191495e-01 
  5.691982109013e-03 
  1.100258540115e-01 
  2.143597259139e-01 
  1.094850286667e-01 
  2.138189005691e-01 
  2.132780752243e-01 