# vtk DataFile Version 2
NuDG++ 2D simulation
ASCII
DATASET UNSTRUCTURED_GRID

POINTS 2244 double
 -1.656250060000e-01  -2.000000030000e-01  0.0
 -1.828125045000e-01  -1.772221997500e-01  0.0
 -2.000000030000e-01  -1.544443965000e-01  0.0
 -1.828125045000e-01  -2.000000030000e-01  0.0
 -2.000000030000e-01  -1.772221997500e-01  0.0
 -2.000000030000e-01  -2.000000030000e-01  0.0
 -6.428571790000e-02  -1.700000018000e-01  0.0
 -8.058035746000e-02  -1.850000024000e-01  0.0
 -9.687499702000e-02  -2.000000030000e-01  0.0
 -6.339285895000e-02  -1.850000024000e-01  0.0
 -7.968749851000e-02  -2.000000030000e-01  0.0
 -6.250000000000e-02  -2.000000030000e-01  0.0
 -2.000000030000e-01  -1.544443965000e-01  0.0
 -1.750000045000e-01  -1.379364989500e-01  0.0
 -1.500000060000e-01  -1.214286014000e-01  0.0
 -2.000000030000e-01  -1.316666491500e-01  0.0
 -1.750000045000e-01  -1.151587516000e-01  0.0
 -2.000000030000e-01  -1.088889018000e-01  0.0
 -1.500000060000e-01  -1.214286014000e-01  0.0
 -1.750000045000e-01  -1.379364989500e-01  0.0
 -2.000000030000e-01  -1.544443965000e-01  0.0
 -1.500000060000e-01  -1.457143016000e-01  0.0
 -1.750000045000e-01  -1.622221991500e-01  0.0
 -1.500000060000e-01  -1.700000018000e-01  0.0
 -1.500000060000e-01  -7.285714149000e-02  0.0
 -1.750000045000e-01  -9.087302164500e-02  0.0
 -2.000000030000e-01  -1.088889018000e-01  0.0
 -1.500000060000e-01  -9.714287144500e-02  0.0
 -1.750000045000e-01  -1.151587516000e-01  0.0
 -1.500000060000e-01  -1.214286014000e-01  0.0
  1.832975030000e+00  -4.625000060000e-02  0.0
  1.853987515000e+00  -1.231250018000e-01  0.0
  1.875000000000e+00  -2.000000030000e-01  0.0
  1.916487515000e+00  -7.187499851000e-02  0.0
  1.937500000000e+00  -1.487499997100e-01  0.0
  2.000000000000e+00  -9.749999642000e-02  0.0
 -1.500000060000e-01  -1.700000018000e-01  0.0
 -1.360000037000e-01  -1.525000036000e-01  0.0
 -1.220000014000e-01  -1.350000054000e-01  0.0
 -1.500000060000e-01  -1.457143016000e-01  0.0
 -1.360000037000e-01  -1.282143034000e-01  0.0
 -1.500000060000e-01  -1.214286014000e-01  0.0
  2.849999964000e-01  -2.333333530000e-02  0.0
  2.837499976000e-01  -8.166666795000e-02  0.0
  2.824999988000e-01  -1.400000006000e-01  0.0
  3.174999952000e-01  -4.666666780000e-02  0.0
  3.162499964000e-01  -1.050000004500e-01  0.0
  3.499999940000e-01  -7.000000030000e-02  0.0
 -1.071429029000e-01  -1.700000018000e-01  0.0
 -8.571431040000e-02  -1.700000018000e-01  0.0
 -6.428571790000e-02  -1.700000018000e-01  0.0
 -9.857145324000e-02  -1.525000036000e-01  0.0
 -7.714286074000e-02  -1.525000036000e-01  0.0
 -9.000000358000e-02  -1.350000054000e-01  0.0
 -1.312499940000e-01  -2.000000030000e-01  0.0
 -1.191964484500e-01  -1.850000024000e-01  0.0
 -1.071429029000e-01  -1.700000018000e-01  0.0
 -1.406250000000e-01  -1.850000024000e-01  0.0
 -1.285714544500e-01  -1.700000018000e-01  0.0
 -1.500000060000e-01  -1.700000018000e-01  0.0
 -1.220000014000e-01  -1.350000054000e-01  0.0
 -1.060000024900e-01  -1.350000054000e-01  0.0
 -9.000000358000e-02  -1.350000054000e-01  0.0
 -1.185000017500e-01  -1.175000034500e-01  0.0
 -1.025000028400e-01  -1.175000034500e-01  0.0
 -1.150000021000e-01  -1.000000015000e-01  0.0
 -9.000000358000e-02  -1.350000054000e-01  0.0
 -1.060000024900e-01  -1.350000054000e-01  0.0
 -1.220000014000e-01  -1.350000054000e-01  0.0
 -9.857145324000e-02  -1.525000036000e-01  0.0
 -1.145714521500e-01  -1.525000036000e-01  0.0
 -1.071429029000e-01  -1.700000018000e-01  0.0
 -7.778175920000e-02  -9.192386270000e-02  0.0
 -9.639088065000e-02  -9.596193210000e-02  0.0
 -1.150000021000e-01  -1.000000015000e-01  0.0
 -8.389088139000e-02  -1.134619340500e-01  0.0
 -1.025000028400e-01  -1.175000034500e-01  0.0
 -9.000000358000e-02  -1.350000054000e-01  0.0
 -1.220000014000e-01  -1.350000054000e-01  0.0
 -1.185000017500e-01  -1.175000034500e-01  0.0
 -1.150000021000e-01  -1.000000015000e-01  0.0
 -1.360000037000e-01  -1.282143034000e-01  0.0
 -1.325000040500e-01  -1.107143014500e-01  0.0
 -1.500000060000e-01  -1.214286014000e-01  0.0
 -7.778175920000e-02  -9.192386270000e-02  0.0
 -8.389088139000e-02  -1.134619340500e-01  0.0
 -9.000000358000e-02  -1.350000054000e-01  0.0
 -6.639088876500e-02  -1.022535823500e-01  0.0
 -7.250001095500e-02  -1.237916537000e-01  0.0
 -5.500001833000e-02  -1.125833020000e-01  0.0
 -1.071429029000e-01  -1.700000018000e-01  0.0
 -1.145714521500e-01  -1.525000036000e-01  0.0
 -1.220000014000e-01  -1.350000054000e-01  0.0
 -1.285714544500e-01  -1.700000018000e-01  0.0
 -1.360000037000e-01  -1.525000036000e-01  0.0
 -1.500000060000e-01  -1.700000018000e-01  0.0
  6.250000093000e-03  -2.000000030000e-01  0.0
  4.062500153650e-02  -2.000000030000e-01  0.0
  7.500000298000e-02  -2.000000030000e-01  0.0
  1.383928512150e-02  -1.850000024000e-01  0.0
  4.821428656500e-02  -1.850000024000e-01  0.0
  2.142857015000e-02  -1.700000018000e-01  0.0
 -1.500000060000e-01  -7.285714149000e-02  0.0
 -1.500000060000e-01  -9.714287144500e-02  0.0
 -1.500000060000e-01  -1.214286014000e-01  0.0
 -1.325000040500e-01  -8.642857149500e-02  0.0
 -1.325000040500e-01  -1.107143014500e-01  0.0
 -1.150000021000e-01  -1.000000015000e-01  0.0
 -2.000000030000e-01  -6.333333254000e-02  0.0
 -1.750000045000e-01  -6.809523701500e-02  0.0
 -1.500000060000e-01  -7.285714149000e-02  0.0
 -1.750000045000e-01  -4.380952660000e-02  0.0
 -1.500000060000e-01  -4.857143107500e-02  0.0
 -1.500000060000e-01  -2.428572066000e-02  0.0
 -2.000000030000e-01  -6.333333254000e-02  0.0
 -2.000000030000e-01  -8.611111717000e-02  0.0
 -2.000000030000e-01  -1.088889018000e-01  0.0
 -1.750000045000e-01  -6.809523701500e-02  0.0
 -1.750000045000e-01  -9.087302164500e-02  0.0
 -1.500000060000e-01  -7.285714149000e-02  0.0
 -2.000000030000e-01  -6.333333254000e-02  0.0
 -1.750000045000e-01  -4.380952660000e-02  0.0
 -1.500000060000e-01  -2.428572066000e-02  0.0
 -2.000000030000e-01  -4.055555630500e-02  0.0
 -1.750000045000e-01  -2.103175036500e-02  0.0
 -2.000000030000e-01  -1.777778007000e-02  0.0
 -1.500000060000e-01  -2.428572066000e-02  0.0
 -1.500000060000e-01  -4.857143107500e-02  0.0
 -1.500000060000e-01  -7.285714149000e-02  0.0
 -1.281259023000e-01  -2.896608505500e-02  0.0
 -1.281259023000e-01  -5.325179547000e-02  0.0
 -1.062517986000e-01  -3.364644945000e-02  0.0
 -1.099999994000e-01   1.996667010000e-08  0.0
 -1.300000027000e-01  -1.214285034666e-02  0.0
 -1.500000060000e-01  -2.428572066000e-02  0.0
 -1.081258990000e-01  -1.682321474166e-02  0.0
 -1.281259023000e-01  -2.896608505500e-02  0.0
 -1.062517986000e-01  -3.364644945000e-02  0.0
 -1.500000060000e-01  -2.428572066000e-02  0.0
 -1.500000060000e-01   0.000000000000e+00  0.0
 -1.500000060000e-01   2.428572066000e-02  0.0
 -1.750000045000e-01  -2.103175036500e-02  0.0
 -1.750000045000e-01   3.253970295000e-03  0.0
 -2.000000030000e-01  -1.777778007000e-02  0.0
 -1.500000060000e-01  -7.285714149000e-02  0.0
 -1.226314045700e-01  -6.892856210000e-02  0.0
 -9.526280314000e-02  -6.499998271000e-02  0.0
 -1.281259023000e-01  -5.325179547000e-02  0.0
 -1.007573008700e-01  -4.932321608000e-02  0.0
 -1.062517986000e-01  -3.364644945000e-02  0.0
  3.499999940000e-01   1.400000006000e-01  0.0
  4.021931737500e-01   1.224999986500e-01  0.0
  4.543863535000e-01   1.049999967000e-01  0.0
  4.187500029500e-01   1.749999970000e-01  0.0
  4.709431827000e-01   1.574999950500e-01  0.0
  4.875000119000e-01   2.099999934000e-01  0.0
 -7.101409137000e-02  -4.349999130000e-02  0.0
 -8.313844725500e-02  -5.424998700500e-02  0.0
 -9.526280314000e-02  -6.499998271000e-02  0.0
 -6.449843011500e-02  -5.250913650000e-02  0.0
 -7.662278600000e-02  -6.325913220500e-02  0.0
 -5.798276886000e-02  -6.151828170000e-02  0.0
 -9.526280314000e-02  -6.499998271000e-02  0.0
 -1.226314045700e-01  -6.892856210000e-02  0.0
 -1.500000060000e-01  -7.285714149000e-02  0.0
 -1.051314026200e-01  -8.249999210500e-02  0.0
 -1.325000040500e-01  -8.642857149500e-02  0.0
 -1.150000021000e-01  -1.000000015000e-01  0.0
 -6.181925908000e-02  -1.656441018000e-02  0.0
 -7.051259093000e-02  -1.954082492500e-02  0.0
 -7.920592278000e-02  -2.251723967000e-02  0.0
 -5.862244405000e-02  -2.428220026000e-02  0.0
 -6.731577590000e-02  -2.725861500500e-02  0.0
 -5.542562902000e-02  -3.199999034000e-02  0.0
 -7.920592278000e-02  -2.251723967000e-02  0.0
 -9.272886069000e-02  -2.808184456000e-02  0.0
 -1.062517986000e-01  -3.364644945000e-02  0.0
 -7.511000707500e-02  -3.300861548500e-02  0.0
 -8.863294498500e-02  -3.857322037500e-02  0.0
 -7.101409137000e-02  -4.349999130000e-02  0.0
 -7.101409137000e-02  -4.349999130000e-02  0.0
 -6.321986019500e-02  -3.774999082000e-02  0.0
 -5.542562902000e-02  -3.199999034000e-02  0.0
 -7.511000707500e-02  -3.300861548500e-02  0.0
 -6.731577590000e-02  -2.725861500500e-02  0.0
 -7.920592278000e-02  -2.251723967000e-02  0.0
 -7.920592278000e-02  -2.251723967000e-02  0.0
 -9.460296109000e-02  -1.125860985166e-02  0.0
 -1.099999994000e-01   1.996667010000e-08  0.0
 -9.272886069000e-02  -2.808184456000e-02  0.0
 -1.081258990000e-01  -1.682321474166e-02  0.0
 -1.062517986000e-01  -3.364644945000e-02  0.0
 -7.778175920000e-02  -9.192386270000e-02  0.0
 -6.788226403000e-02  -7.672107220000e-02  0.0
 -5.798276886000e-02  -6.151828170000e-02  0.0
 -8.652228117000e-02  -7.846192270500e-02  0.0
 -7.662278600000e-02  -6.325913220500e-02  0.0
 -9.526280314000e-02  -6.499998271000e-02  0.0
 -7.101409137000e-02  -4.349999130000e-02  0.0
 -8.863294498500e-02  -3.857322037500e-02  0.0
 -1.062517986000e-01  -3.364644945000e-02  0.0
 -8.313844725500e-02  -5.424998700500e-02  0.0
 -1.007573008700e-01  -4.932321608000e-02  0.0
 -9.526280314000e-02  -6.499998271000e-02  0.0
 -7.778175920000e-02  -9.192386270000e-02  0.0
 -8.652228117000e-02  -7.846192270500e-02  0.0
 -9.526280314000e-02  -6.499998271000e-02  0.0
 -9.639088065000e-02  -9.596193210000e-02  0.0
 -1.051314026200e-01  -8.249999210500e-02  0.0
 -1.150000021000e-01  -1.000000015000e-01  0.0
[...]
POINT_DATA 2244
SCALARS field1 double 1
LOOKUP_TABLE default
  3.104762240844e-03 
  1.409999480273e-01 
  2.788951338138e-01 
  1.319898938082e-03 
  1.392150847246e-01 
 -4.649643646791e-04 
  3.888326635395e-01 
  1.929240207278e-01 
 -2.984622083824e-03 
  1.956793837347e-01 
 -2.292590769039e-04 
  2.526103930016e-03 
  2.759924019340e-01 
  3.571283066398e-01 
  4.382642113455e-01 
  3.806955754444e-01 
  4.618314801502e-01 
  4.853987489549e-01 
  4.390020507441e-01 
  3.574327369311e-01 
  2.758634231181e-01 
  3.284686374019e-01 
  2.468993235889e-01 
  2.179352240597e-01 
  6.030331372397e-01 
  5.444744464611e-01 
  4.859157556826e-01 
  5.233626596639e-01 
  4.648039688854e-01 
  4.436921820882e-01 
 -2.670672234774e+00 
 -3.214545232937e+00 
 -3.758418231101e+00 
 -3.461828323470e+00 
 -4.005701321633e+00 
 -4.252984412165e+00 
  2.188637479913e-01 
  3.147813335656e-01 
  4.106989191399e-01 
  3.293478387258e-01 
  4.252654243001e-01 
  4.398319294603e-01 
  5.814249857418e-01 
  5.553915152774e-01 
  5.293580448130e-01 
  5.901871280541e-01 
  5.641536575897e-01 
  5.989492703664e-01 
  2.895988568359e-01 
  3.398982273872e-01 
  3.901975979385e-01 
  3.760197255430e-01 
  4.263190960943e-01 
  4.624405942501e-01 
 -7.187043765847e-04 
  1.448939952860e-01 
  2.905066949487e-01 
  1.055938681958e-01 
  2.512065678584e-01 
  2.119064407681e-01 
  4.058039498719e-01 
  4.335155787921e-01 
  4.612272077123e-01 
  4.824201684131e-01 
  5.101317973333e-01 
  5.590363869543e-01 
  4.586579902288e-01 
  4.328204671446e-01 
  4.069829440604e-01 
  3.740765051486e-01 
  3.482389820644e-01 
  2.894950200685e-01 
  6.215444981452e-01 
  5.906954110398e-01 
  5.598463239345e-01 
  5.435778488471e-01 
  5.127287617417e-01 
  4.656111995489e-01 
  4.087787940046e-01 
  4.829159195224e-01 
  5.570530450403e-01 
  4.245567194357e-01 
  4.986938449536e-01 
  4.403346448669e-01 
  6.218289519063e-01 
  5.428158273889e-01 
  4.638027028715e-01 
  6.240940362861e-01 
  5.450809117688e-01 
  6.263591206660e-01 
  2.887570739794e-01 
  3.498098401444e-01 
  4.108626063094e-01 
  2.528421394597e-01 
  3.138949056247e-01 
  2.169272049401e-01 
  1.664657083254e-03 
  4.859849473239e-03 
  8.055041863224e-03 
  2.825784921432e-01 
  2.857736845332e-01 
  5.634923272032e-01 
  6.027578979772e-01 
  5.218658625735e-01 
  4.409738271697e-01 
  5.793493173829e-01 
  4.984572819791e-01 
  5.559407367885e-01 
  6.257369809007e-01 
  6.122931283987e-01 
  5.988492758968e-01 
  6.435386427441e-01 
  6.300947902422e-01 
  6.613403045876e-01 
  6.240882652211e-01 
  5.549248356512e-01 
  4.857614060813e-01 
  6.119377484426e-01 
  5.427743188727e-01 
  5.997872316641e-01 
  6.275254282303e-01 
  6.446531601177e-01 
  6.617808920051e-01 
  6.618056817148e-01 
  6.789334136022e-01 
  6.960859351993e-01 
  6.617678072382e-01 
  6.332533358488e-01 
  6.047388644593e-01 
  6.223016528269e-01 
  5.937871814374e-01 
  5.828354984155e-01 
  5.531434880785e-01 
  6.076596234758e-01 
  6.621757588730e-01 
  5.635452582984e-01 
  6.180613936957e-01 
  5.739470285184e-01 
  6.554001307425e-01 
  6.641720264207e-01 
  6.729439220990e-01 
  6.762439283222e-01 
  6.850158240004e-01 
  6.970877259019e-01 
  6.037518281599e-01 
  5.910096534462e-01 
  5.782674787326e-01 
  5.920666960701e-01 
  5.793245213565e-01 
  5.803815639803e-01 
  5.310734304542e-01 
  5.694836954179e-01 
  6.078939603815e-01 
  2.875617538628e-01 
  3.259720188265e-01 
  4.405007727139e-02 
  5.422280533962e-01 
  5.638773817469e-01 
  5.855267100976e-01 
  6.025661213022e-01 
  6.242154496529e-01 
  6.629041892083e-01 
  5.820183796820e-01 
  5.928392237831e-01 
  6.036600678843e-01 
  5.720283804778e-01 
  5.828492245789e-01 
  5.620383812736e-01 
  2.161824783237e-01 
  3.202519965161e-01 
  4.243215147084e-01 
  2.884922852789e-01 
  3.925618034712e-01 
  3.608020922341e-01 
  4.049572143168e-01 
  4.875146147785e-01 
  5.700720152402e-01 
  4.736970775910e-01 
  5.562544780527e-01 
  5.424369408653e-01 
  5.472746435485e-01 
  4.595478015231e-01 
  3.718209594976e-01 
  4.822080029598e-01 
  3.944811609344e-01 
  4.171413623711e-01 
  4.045726576595e-01 
  4.758985446301e-01 
  5.472244316007e-01 
  4.889249658242e-01 
  5.602508527948e-01 
  5.732772739889e-01 
  6.207604138918e-01 
  6.446962144804e-01 
  6.686320150691e-01 
  6.023593853672e-01 
  6.262951859558e-01 
  5.839583568425e-01 
  5.457694705061e-01 
  5.606281948980e-01 
  5.754869192899e-01 
  5.675680183071e-01 
  5.824267426990e-01 
  5.893665661082e-01 
  6.146317072738e-01 
  5.974358848098e-01 
  5.802400623458e-01 
  5.873892249326e-01 
  5.701934024685e-01 
  5.601467425913e-01 
  4.181158468217e-01 
  3.226065687738e-01 
  2.270972907259e-01 
  4.049268693591e-01 
  3.094175913112e-01 
  3.917378918965e-01 
  6.258911367628e-01 
  5.443825000700e-01 
  4.628738633772e-01 
  5.085183501432e-01 
  4.270097134504e-01 
  3.911455635236e-01 
 -2.496244958674e+00 
 -2.678242865331e+00 
 -2.860240771989e+00 
 -2.650857545640e+00 
 -2.832855452297e+00 
 -2.805470132606e+00 
  6.417503701651e-01 
  5.695430522665e-01 
  4.973357343679e-01 
  6.699419846767e-01 
  5.977346667781e-01 
  6.981335991883e-01 
  6.386431108615e-01 
  6.312082235035e-01 
  6.237733361455e-01 
  5.154407179454e-01 
  5.080058305874e-01 
  3.922383250293e-01 
  6.169408885227e-01 
  6.994375931004e-01 
  7.819342976781e-01 
  6.417469265584e-01 
  7.242436311361e-01 
  6.665529645941e-01 
  7.860896908823e-01 
  7.025122410631e-01 
  6.189347912439e-01 
  7.111898802180e-01 
  6.276124303987e-01 
  6.362900695536e-01 
  8.921695477308e-01 
  8.404044777144e-01 
  7.886394076979e-01 
  7.610299570499e-01 
  7.092648870335e-01 
  6.298903663690e-01 
  8.047112249334e-01 
  7.354819995644e-01 
  6.662527741954e-01 
  8.011050283185e-01 
  7.318758029496e-01 
  7.974988317037e-01 
  6.261649301535e-01 
  6.370060595094e-01 
  6.478471888653e-01 
  7.616772481824e-01 
  7.725183775384e-01 
  8.971895662114e-01 
  6.414759486430e-01 
  5.180234174068e-01 
  3.945708861707e-01 
  5.692629813575e-01 
  4.458104501214e-01 
  4.970500140721e-01 
  9.597995974097e-01 
  9.303969775512e-01 
  9.009943576927e-01 
  8.052094752665e-01 
  7.758068554080e-01 
  6.506193531233e-01 
 -1.969065356247e-03 
  3.995874339586e-01 
  8.011439332734e-01 
 -8.612077242876e-03 
  3.929444220719e-01 
 -1.525508912950e-02 
  9.215760202395e-01 
  8.847687655926e-01 
  8.479615109457e-01 
  9.033019574077e-01 
  8.664947027608e-01 
  8.850278945760e-01 
  8.427507343178e-01 
  8.817181635749e-01 
  9.206855928320e-01 
  8.903081990571e-01 
  9.292756283142e-01 
  9.378656637964e-01 
  8.807631006197e-01 
  8.571685078881e-01 
  8.335739151566e-01 
  4.476614761130e-01 
  4.240668833814e-01 
  1.455985160632e-02 
  9.002205032729e-01 
  8.949310275148e-01 
  8.896415517568e-01 
  8.494423850481e-01 
  8.441529092900e-01 
  7.986642668232e-01 
  9.009046783106e-01 
  8.583150971567e-01 
  8.157255160028e-01 
  9.239775926016e-01 
  8.813880114477e-01 
  9.470505068927e-01 
  9.627154485570e-01 
  8.065725694579e-01 
  6.504296903588e-01 
  8.317824559185e-01 
  6.756395768194e-01 
  7.008494632800e-01 
  4.988816590814e-01 
  5.235463346783e-01 
  5.482110102753e-01 
  5.993930002342e-01 
  6.240576758312e-01 
  6.999043413871e-01 
  8.003810086770e-01 
  8.041226401956e-01 
  8.078642717143e-01 
  8.419627796777e-01 
  8.457044111963e-01 
  8.835445506784e-01 
 -9.431322571753e-04 
  1.884361989151e-01 
  3.778155300874e-01 
  9.638420135158e-03 
  1.990177513075e-01 
  2.021997252749e-02 
  3.708319709170e-01 
  4.552963572117e-01 
  5.397607435064e-01 
  4.818624572743e-01 
  5.663268435691e-01 
  5.928929436317e-01 
  5.029685770213e-01 
  2.514025974861e-01 
 -1.633820490328e-04 
  2.540874150455e-01 
  2.521435510327e-03 
  5.206253069687e-03 
 -1.795835411449e-02 
  3.306250428620e-02 
  8.408336268689e-02 
  9.767881332522e-02 
  1.486996717259e-01 
  2.133159807649e-01 
  9.772397261798e-03 
 -3.541888131242e-03 
 -1.685617352428e-02 
  1.823870377184e-01 
  1.690727523254e-01 
  3.550016781751e-01 
  3.371580609716e-01 
  1.693768001830e-01 
  1.595539394387e-03 
  3.041486539163e-01 
  1.363673931277e-01 
  2.711392468610e-01 
  3.735546735280e-01 
  4.913762489443e-01 
  6.091978243605e-01 
  2.005827570777e-01 
  3.184043324939e-01 
  2.761084062741e-02 
 -2.436575646941e-02 
  9.081425598946e-02 
  2.059942684483e-01 
  1.637286415951e-01 
  2.789086540539e-01 
  3.518230396595e-01 
  8.256500483941e-03 
  9.506271681590e-03 
  1.075604287924e-02 
  4.458196177797e-01 
  4.470693889774e-01 
  8.833827350755e-01 
  1.443666943256e-02 
  4.236603098923e-01 
  8.328839503520e-01 
  7.448450934156e-03 
  4.166720913939e-01 
  4.602324357560e-04 
  5.367845285493e-01 
  2.669994771440e-01 
 -2.785574261228e-03 
  4.875036334417e-01 
  2.177185820364e-01 
  4.382227383340e-01 
  7.140217504926e-03 
  3.253289386057e-01 
  6.435176597066e-01 
  1.983833965589e-02 
  3.380270607567e-01 
  3.253646180685e-02 
  2.377572951041e-02 
  4.111001864384e-01 
  7.984246433663e-01 
  4.479918602516e-01 
  8.353163171796e-01 
  8.722079909929e-01 
  4.993304748015e-01 
  2.545468212673e-01 
  9.763167733192e-03 
  5.228722537750e-01 
  2.780886002408e-01 
  5.464140327485e-01 
  2.956221639321e-01 
  1.484799036491e-01 
  1.337643366087e-03 
  1.500082432501e-01 
  2.865982967064e-03 
  4.394322568041e-03 
  4.641962590481e-02 
  3.399159311624e-01 
  6.334122364201e-01 
  4.212467018227e-01 
  7.147430070803e-01 
  7.960737777405e-01 
  6.067642456201e-01 
  6.370717426811e-01 
  6.673792397421e-01 
  7.031328861077e-01 
  7.334403831687e-01 
  7.995015265954e-01 
  4.000261552504e-01 
  2.045293453019e-01 
  9.032535353438e-03 
  4.443986639657e-01 
  2.489018540173e-01 
  4.887711726811e-01 
  9.617473815074e-01 
  8.290805848008e-01 
  6.964137880942e-01 
  8.645893942769e-01 
  7.319225975703e-01 
  7.674314070464e-01 
  5.980346906858e-01 
  5.680246779565e-01 
  5.380146652273e-01 
  6.345115381664e-01 
  6.045015254372e-01 
  6.709883856470e-01 
  2.343006968779e-03 
  5.781016562297e-03 
  9.219026155815e-03 
  2.031405238959e-01 
  2.065785334894e-01 
  4.039380408229e-01 
  7.335517275018e-02 
  3.258284558510e-02 
 -8.189481579972e-03 
  3.386567821640e-02 
 -6.906648948673e-03 
 -5.623816317375e-03 
  6.333912912523e-01 
  6.521651635143e-01 
  6.709390357763e-01 
  6.157244943079e-01 
  6.344983665699e-01 
  5.980576973634e-01 
  6.735696585642e-01 
  6.836886481088e-01 
  6.938076376533e-01 
  6.857985146261e-01 
  6.959175041706e-01 
  6.980273706879e-01 
  6.930307626827e-01 
  6.598037851293e-01 
  6.265768075758e-01 
  6.585961582105e-01 
  6.253691806571e-01 
  6.241615537383e-01 
  6.276839748792e-01 
  6.597152454924e-01 
  6.917465161057e-01 
  6.484335233336e-01 
  6.804647939469e-01 
  6.691830717881e-01 
  6.232846778142e-01 
  6.255334372136e-01 
  6.277821966130e-01 
  5.550155239809e-01 
  5.572642833804e-01 
  4.867463701477e-01 
 -2.895200578545e+00 
 -2.164084581382e+00 
 -1.432968584219e+00 
 -4.274964286548e+00 
 -3.543848289385e+00 
 -5.654727994551e+00 
  6.743274275147e-01 
  6.150891404561e-01 
  5.558508533976e-01 
  6.318403514056e-01 
  5.726020643471e-01 
  5.893532752966e-01 
  6.746561217451e-01 
  6.669870305623e-01 
  6.593179393794e-01 
  6.177401361563e-01 
  6.100710449734e-01 
  5.608241505674e-01 
  4.190597797222e-01 
  5.045999690982e-01 
  5.901401584742e-01 
  4.850271826990e-01 
  5.705673720750e-01 
  5.509945856758e-01 
  5.627946860920e-01 
  4.947143539556e-01 
  4.266340218191e-01 
  4.731174881162e-01 
  4.050371559797e-01 
  3.834402901404e-01 
  5.890506669267e-01 
  5.687917008151e-01 
  5.485327347034e-01 
  5.944208813028e-01 
  5.741619151911e-01 
  5.997910956789e-01 
  5.485501441993e-01 
  5.663058046180e-01 
  5.840614650367e-01 
  4.843430918339e-01 
  5.020987522526e-01 
  4.201360394685e-01 
  6.302537539195e-01 
  6.135612128535e-01 
  5.968686717874e-01 
  6.579508424243e-01 
  6.412583013583e-01 
  6.856479309292e-01 
  5.943084514028e-01 
  5.955350944812e-01 
  5.967617375596e-01 
  6.142106121088e-01 
  6.154372551873e-01 
  6.341127728149e-01 
  4.276729797737e-01 
  4.072503194310e-01 
  3.868276590882e-01 
  3.328457310290e-01 
  3.124230706862e-01 
  2.380184822843e-01 
  4.199288078355e-01 
  4.831945412005e-01 
  5.464602745654e-01 
  4.010841488058e-01 
  4.643498821707e-01 
  3.822394897761e-01 
  5.436506127578e-01 
  4.756192302492e-01 
  4.075878477406e-01 
  4.648391971696e-01 
  3.968078146610e-01 
  3.860277815814e-01 
  6.322187935327e-01 
  6.180710947450e-01 
  6.039233959573e-01 
  6.072996646833e-01 
  5.931519658956e-01 
  5.823805358340e-01 
  4.861601127384e-01 
  4.805591489307e-01 
  4.749581851231e-01 
  3.812139419330e-01 
  3.756129781253e-01 
  2.762677711276e-01 
  4.872283559869e-01 
  5.585718331351e-01 
  6.299153102832e-01 
  4.830443966547e-01 
  5.543878738029e-01 
  4.788604373225e-01 
  2.742206601387e-01 
  2.721414432939e-01 
  2.700622264490e-01 
  1.367855889865e-01 
  1.347063721417e-01 
 -6.494821657157e-04 
  2.728354796934e-01 
  2.739140269825e-01 
  2.749925742716e-01 
  3.742476896171e-01 
  3.753262369063e-01 
  4.756598995409e-01 
  3.457395812113e-01 
  1.746208179724e-01 
  3.502054733517e-03 
  1.730342913370e-01 
  1.915528098047e-03 
  3.290014625775e-04 
  5.841027055538e-03 
 -1.235437014536e-03 
 -8.311901084610e-03 
  2.783099633687e-01 
  2.712334992986e-01 
  5.507788996819e-01 
  4.756412425498e-01 
  4.607688668424e-01 
  4.458964911350e-01 
  3.747575049312e-01 
  3.598851292239e-01 
  2.738737673127e-01 
  4.697744562180e-01 
  2.416523190237e-01 
  1.353018182929e-02 
  2.512548633817e-01 
  2.313272618729e-02 
  3.273527054529e-02 
  5.783985253385e-01 
  6.020273756982e-01 
  6.256562260579e-01 
  5.434827467871e-01 
  5.671115971468e-01 
  5.085669682357e-01 
  6.230477271286e-01 
  6.022709481047e-01 
  5.814941690808e-01 
  6.129781074622e-01 
  5.922013284383e-01 
  6.029084877958e-01 
  4.420643545875e-01 
  4.764136808830e-01 
  5.107630071785e-01 
  3.916261994445e-01 
  4.259755257400e-01 
  3.411880443015e-01 
  5.075964435455e-01 
  4.753164079380e-01 
  4.430363723305e-01 
  5.419247854024e-01 
  5.096447497949e-01 
  5.762531272594e-01 
  3.423687670934e-01 
  4.287621570670e-01 
  5.151555470406e-01 
  4.007552311171e-01 
  4.871486210907e-01 
  4.591416951407e-01 
  4.457830734400e-01 
  3.918205449154e-01 
  3.378580163908e-01 
  3.593828110877e-01 
  3.054202825631e-01 
  2.729825487354e-01 
  6.238544200866e-01 
  6.206231096796e-01 
  6.173917992726e-01 
  5.667471171291e-01 
  5.635158067220e-01 
  5.096398141715e-01 
  5.754784581673e-01 
  5.106100160935e-01 
  4.457415740197e-01 
  5.253671999313e-01 
  4.604987578575e-01 
  4.752559416953e-01 
  6.296624655221e-01 
  6.019591230135e-01 
  5.742557805048e-01 
  5.524671830208e-01 
  5.247638405122e-01 
  4.752719005195e-01 
  3.467085054114e-01 
  3.967114967080e-01 
  4.467144880045e-01 
  1.737171739680e-01 
  2.237201652645e-01 
  7.258425245301e-04 
  5.911768750225e-01 
  5.709066198879e-01 
  5.506363647532e-01 
  6.377060050556e-01 
  6.174357499210e-01 
  6.842351350887e-01 
 -3.470932172077e+00 
 -3.603633737056e+00 
 -3.736335302035e+00 
 -3.224101276674e+00 
 -3.356802841653e+00 
 -2.977270381271e+00 
  7.765651484844e-02 
  3.412262852548e-02 
 -9.411257797484e-03 
  1.540380026751e-01 
  1.105041163521e-01 
  2.304194905017e-01 
  7.098913282598e-02 
  3.219866595536e-02 
 -6.591800915264e-03 
  3.291692737542e-02 
 -5.873539495199e-03 
 -5.155278075135e-03 
  2.367003565858e-01 
  1.180076709189e-01 
 -6.850147478721e-04 
  3.004876698005e-01 
  1.817949841337e-01 
  3.642749830153e-01 
  5.653097189262e-01 
  4.617128571305e-01 
  3.581159953348e-01 
  2.786349170734e-01 
  1.750380552776e-01 
 -8.039884779468e-03 
  5.872455038782e-01 
  6.444621753132e-01 
  7.016788467482e-01 
  5.759141013037e-01 
  6.331307727387e-01 
  5.645826987291e-01 
  5.741168761707e-01 
  5.729041765160e-01 
  5.716914768613e-01 
  4.719413219992e-01 
  4.707286223445e-01 
  3.697657678278e-01 
  3.128759011479e-03 
  1.185825185915e-01 
  2.340362781716e-01 
 -8.248113061746e-04 
  1.146289482739e-01 
 -4.778381623828e-03 
  4.316718723186e-01 
  3.336441287371e-01 
  2.356163851555e-01 
  4.033593527291e-01 
  3.053316091475e-01 
  3.750468331396e-01 
 -2.045034296406e-03 
  7.491370857832e-03 
  1.702777601207e-02 
  2.847805034062e-01 
  2.943169085605e-01 
  5.716060411089e-01 
  5.584939152765e-01 
  2.861223222659e-01 
  1.375072925528e-02 
  5.560534401415e-01 
  2.836818471309e-01 
  5.536129650065e-01 
  4.503700976229e-01 
  3.169472271277e-01 
  1.835243566324e-01 
  5.946441111447e-01 
  4.612212406494e-01 
  7.389181246664e-01 
  2.790003638044e-01 
  1.413089098784e-01 
  3.617455952416e-03 
  2.471878440418e-01 
  1.094963901158e-01 
  2.153753242793e-01 
  8.223550823762e-01 
  4.149661169220e-01 
  7.577151467851e-03 
  4.227806614062e-01 
  1.539169595197e-02 
  2.320624043608e-02 
  7.947685258597e-01 
  3.975438835686e-01 
  3.192412776249e-04 
  4.098546825127e-01 
  1.263004022167e-02 
  2.494083916571e-02 
  5.021640649428e-01 
  2.596250379104e-01 
  1.708601087799e-02 
  4.635254845350e-01 
  2.209864575026e-01 
  4.248869041272e-01 
  5.616627866115e-01 
  2.838870208871e-01 
  6.111255162732e-03 
  6.656155176120e-01 
  3.878397518876e-01 
  7.695682486125e-01 
  6.724630366645e-01 
  6.254150665202e-01 
  5.783670963759e-01 
  5.813168703435e-01 
  5.342689001992e-01 
  4.901707040225e-01 
  8.832126044052e-01 
  4.463894368441e-01 
  9.566269282971e-03 
  4.408453369276e-01 
  4.022169366522e-03 
 -1.521930549927e-03 
  6.956071057767e-01 
  7.378747638271e-01 
  7.801424218775e-01 
  7.601809807232e-01 
  8.024486387736e-01 
  8.247548556697e-01 
  7.672226760636e-01 
  7.364662699312e-01 
  7.057098637988e-01 
  6.712074972125e-01 
  6.404510910801e-01 
  5.751923183614e-01 
  6.387389663741e-01 
  5.486920247718e-01 
  4.586450831694e-01 
  6.289055592406e-01 
  5.388586176383e-01 
  6.190721521072e-01 
  4.620634377605e-01 
  4.876715698170e-01 
  5.132797018735e-01 
  5.400337159187e-01 
  5.656418479752e-01 
  6.180039940768e-01 
  6.295242406801e-01 
  6.264200791442e-01 
  6.233159176084e-01 
  7.256504493734e-01 
  7.225462878375e-01 
  8.217766580667e-01 
  8.229702921843e-01 
  8.706332908472e-01 
  9.182962895102e-01 
  7.241632656353e-01 
  7.718262642982e-01 
  6.253562390862e-01 
  8.259507187217e-01 
  8.084871743974e-01 
  7.910236300731e-01 
  8.559823019725e-01 
  8.385187576481e-01 
  8.860138852232e-01 
  6.856757502907e-01 
  7.504005603670e-01 
  8.151253704433e-01 
  6.543717347516e-01 
  7.190965448279e-01 
  6.230677192125e-01 
  8.779633422136e-01 
  8.637457657588e-01 
  8.495281893041e-01 
  9.055518986724e-01 
  8.913343222177e-01 
  9.331404551313e-01 
  8.828263932044e-01 
  8.489824905887e-01 
  8.151385879730e-01 
  4.588204836645e-01 
  4.249765810488e-01 
  3.481457412467e-02 
  6.573763651899e-01 
  7.913953216006e-01 
  9.254142780114e-01 
  8.115527187877e-01 
  9.455716751985e-01 
  9.657290723856e-01 
  9.243845454906e-01 
  7.883209697672e-01 
  6.522573940438e-01 
  7.724959251400e-01 
  6.364323494166e-01 
  6.206073047895e-01 
  5.321363646092e-01 
  5.869731170451e-01 
  6.418098694810e-01 
  6.190245728786e-01 
  6.738613253145e-01 
  7.059127811481e-01 
  6.415455099062e-01 
  5.862371401796e-01 
  5.309287704530e-01 
  5.472750808499e-01 
  4.919667111233e-01 
  4.530046517937e-01 
  9.426734255547e-01 
  9.385116533740e-01 
  9.343498811934e-01 
  8.931328471528e-01 
  8.889710749721e-01 
  8.435922687508e-01 
  8.836948818391e-01 
  9.008450614761e-01 
  9.179952411131e-01 
  8.541377622889e-01 
  8.712879419259e-01 
  8.245806427386e-01 
  1.177035388390e-02 
  4.304806344705e-01 
  8.491909150571e-01 
  4.441648745713e-01 
  8.628751551579e-01 
  8.765593952588e-01 