# vtk DataFile Version 2
NuDG++ 2D simulation
ASCII
DATASET UNSTRUCTURED_GRID

POINTS 2244 double
 -1.656250060000e-01  -2.000000030000e-01  0.0
 -1.828125045000e-01  -1.772221997500e-01  0.0
 -2.000000030000e-01  -1.544443965000e-01  0.0
 -1.828125045000e-01  -2.000000030000e-01  0.0
 -2.000000030000e-01  -1.772221997500e-01  0.0
 -2.000000030000e-01  -2.000000030000e-01  0.0
 -6.428571790000e-02  -1.700000018000e-01  0.0
 -8.058035746000e-02  -1.850000024000e-01  0.0
 -9.687499702000e-02  -2.000000030000e-01  0.0
 -6.339285895000e-02  -1.850000024000e-01  0.0
 -7.968749851000e-02  -2.000000030000e-01  0.0
 -6.250000000000e-02  -2.000000030000e-01  0.0
 -2.000000030000e-01  -1.544443965000e-01  0.0
 -1.750000045000e-01  -1.379364989500e-01  0.0
 -1.500000060000e-01  -1.214286014000e-01  0.0
 -2.000000030000e-01  -1.316666491500e-01  0.0
 -1.750000045000e-01  -1.151587516000e-01  0.0
 -2.000000030000e-01  -1.088889018000e-01  0.0
 -1.500000060000e-01  -1.214286014000e-01  0.0
 -1.750000045000e-01  -1.379364989500e-01  0.0
 -2.000000030000e-01  -1.544443965000e-01  0.0
 -1.500000060000e-01  -1.457143016000e-01  0.0
 -1.750000045000e-01  -1.622221991500e-01  0.0
 -1.500000060000e-01  -1.700000018000e-01  0.0
 -1.500000060000e-01  -7.285714149000e-02  0.0
 -1.750000045000e-01  -9.087302164500e-02  0.0
 -2.000000030000e-01  -1.088889018000e-01  0.0
 -1.500000060000e-01  -9.714287144500e-02  0.0
 -1.750000045000e-01  -1.151587516000e-01  0.0
 -1.500000060000e-01  -1.214286014000e-01  0.0
  1.832975030000e+00  -4.625000060000e-02  0.0
  1.853987515000e+00  -1.231250018000e-01  0.0
  1.875000000000e+00  -2.000000030000e-01  0.0
  1.916487515000e+00  -7.187499851000e-02  0.0
  1.937500000000e+00  -1.487499997100e-01  0.0
  2.000000000000e+00  -9.749999642000e-02  0.0
 -1.500000060000e-01  -1.700000018000e-01  0.0
 -1.360000037000e-01  -1.525000036000e-01  0.0
 -1.220000014000e-01  -1.350000054000e-01  0.0
 -1.500000060000e-01  -1.457143016000e-01  0.0
 -1.360000037000e-01  -1.282143034000e-01  0.0
 -1.500000060000e-01  -1.214286014000e-01  0.0
  2.849999964000e-01  -2.333333530000e-02  0.0
  2.837499976000e-01  -8.166666795000e-02  0.0
  2.824999988000e-01  -1.400000006000e-01  0.0
  3.174999952000e-01  -4.666666780000e-02  0.0
  3.162499964000e-01  -1.050000004500e-01  0.0
  3.499999940000e-01  -7.000000030000e-02  0.0
 -1.071429029000e-01  -1.700000018000e-01  0.0
 -8.571431040000e-02  -1.700000018000e-01  0.0
 -6.428571790000e-02  -1.700000018000e-01  0.0
 -9.857145324000e-02  -1.525000036000e-01  0.0
 -7.714286074000e-02  -1.525000036000e-01  0.0
 -9.000000358000e-02  -1.350000054000e-01  0.0
 -1.312499940000e-01  -2.000000030000e-01  0.0
 -1.191964484500e-01  -1.850000024000e-01  0.0
 -1.071429029000e-01  -1.700000018000e-01  0.0
 -1.406250000000e-01  -1.850000024000e-01  0.0
 -1.285714544500e-01  -1.700000018000e-01  0.0
 -1.500000060000e-01  -1.700000018000e-01  0.0
 -1.220000014000e-01  -1.350000054000e-01  0.0
 -1.060000024900e-01  -1.350000054000e-01  0.0
 -9.000000358000e-02  -1.350000054000e-01  0.0
 -1.185000017500e-01  -1.175000034500e-01  0.0
 -1.025000028400e-01  -1.175000034500e-01  0.0
 -1.150000021000e-01  -1.000000015000e-01  0.0
 -9.000000358000e-02  -1.350000054000e-01  0.0
 -1.060000024900e-01  -1.350000054000e-01  0.0
 -1.220000014000e-01  -1.350000054000e-01  0.0
 -9.857145324000e-02  -1.525000036000e-01  0.0
 -1.145714521500e-01  -1.525000036000e-01  0.0
 -1.071429029000e-01  -1.700000018000e-01  0.0
 -7.778175920000e-02  -9.192386270000e-02  0.0
 -9.639088065000e-02  -9.596193210000e-02  0.0
 -1.150000021000e-01  -1.000000015000e-01  0.0
 -8.389088139000e-02  -1.134619340500e-01  0.0
 -1.025000028400e-01  -1.175000034500e-01  0.0
 -9.000000358000e-02  -1.350000054000e-01  0.0
 -1.220000014000e-01  -1.350000054000e-01  0.0
 -1.185000017500e-01  -1.175000034500e-01  0.0
 -1.150000021000e-01  -1.000000015000e-01  0.0
 -1.360000037000e-01  -1.282143034000e-01  0.0
 -1.325000040500e-01  -1.107143014500e-01  0.0
 -1.500000060000e-01  -1.214286014000e-01  0.0
 -7.778175920000e-02  -9.192386270000e-02  0.0
 -8.389088139000e-02  -1.134619340500e-01  0.0
 -9.000000358000e-02  -1.350000054000e-01  0.0
 -6.639088876500e-02  -1.022535823500e-01  0.0
 -7.250001095500e-02  -1.237916537000e-01  0.0
 -5.500001833000e-02  -1.125833020000e-01  0.0
 -1.071429029000e-01  -1.700000018000e-01  0.0
 -1.145714521500e-01  -1.525000036000e-01  0.0
 -1.220000014000e-01  -1.350000054000e-01  0.0
 -1.285714544500e-01  -1.700000018000e-01  0.0
 -1.360000037000e-01  -1.525000036000e-01  0.0
 -1.500000060000e-01  -1.700000018000e-01  0.0
  6.250000093000e-03  -2.000000030000e-01  0.0
  4.062500153650e-02  -2.000000030000e-01  0.0
  7.500000298000e-02  -2.000000030000e-01  0.0
  1.383928512150e-02  -1.850000024000e-01  0.0
  4.821428656500e-02  -1.850000024000e-01  0.0
  2.142857015000e-02  -1.700000018000e-01  0.0
 -1.500000060000e-01  -7.285714149000e-02  0.0
 -1.500000060000e-01  -9.714287144500e-02  0.0
 -1.500000060000e-01  -1.214286014000e-01  0.0
 -1.325000040500e-01  -8.642857149500e-02  0.0
 -1.325000040500e-01  -1.107143014500e-01  0.0
 -1.150000021000e-01  -1.000000015000e-01  0.0
 -2.000000030000e-01  -6.333333254000e-02  0.0
 -1.750000045000e-01  -6.809523701500e-02  0.0
 -1.500000060000e-01  -7.285714149000e-02  0.0
 -1.750000045000e-01  -4.380952660000e-02  0.0
 -1.500000060000e-01  -4.857143107500e-02  0.0
 -1.500000060000e-01  -2.428572066000e-02  0.0
 -2.000000030000e-01  -6.333333254000e-02  0.0
 -2.000000030000e-01  -8.611111717000e-02  0.0
 -2.000000030000e-01  -1.088889018000e-01  0.0
 -1.750000045000e-01  -6.809523701500e-02  0.0
 -1.750000045000e-01  -9.087302164500e-02  0.0
 -1.500000060000e-01  -7.285714149000e-02  0.0
 -2.000000030000e-01  -6.333333254000e-02  0.0
 -1.750000045000e-01  -4.380952660000e-02  0.0
 -1.500000060000e-01  -2.428572066000e-02  0.0
 -2.000000030000e-01  -4.055555630500e-02  0.0
 -1.750000045000e-01  -2.103175036500e-02  0.0
 -2.000000030000e-01  -1.777778007000e-02  0.0
 -1.500000060000e-01  -2.428572066000e-02  0.0
 -1.500000060000e-01  -4.857143107500e-02  0.0
 -1.500000060000e-01  -7.285714149000e-02  0.0
 -1.281259023000e-01  -2.896608505500e-02  0.0
 -1.281259023000e-01  -5.325179547000e-02  0.0
 -1.062517986000e-01  -3.364644945000e-02  0.0
 -1.099999994000e-01   1.996667010000e-08  0.0
 -1.300000027000e-01  -1.214285034666e-02  0.0
 -1.500000060000e-01  -2.428572066000e-02  0.0
 -1.081258990000e-01  -1.682321474166e-02  0.0
 -1.281259023000e-01  -2.896608505500e-02  0.0
 -1.062517986000e-01  -3.364644945000e-02  0.0
 -1.500000060000e-01  -2.428572066000e-02  0.0
 -1.500000060000e-01   0.000000000000e+00  0.0
 -1.500000060000e-01   2.428572066000e-02  0.0
 -1.750000045000e-01  -2.103175036500e-02  0.0
 -1.750000045000e-01   3.253970295000e-03  0.0
 -2.000000030000e-01  -1.777778007000e-02  0.0
 -1.500000060000e-01  -7.285714149000e-02  0.0
 -1.226314045700e-01  -6.892856210000e-02  0.0
 -9.526280314000e-02  -6.499998271000e-02  0.0
 -1.281259023000e-01  -5.325179547000e-02  0.0
 -1.007573008700e-01  -4.932321608000e-02  0.0
 -1.062517986000e-01  -3.364644945000e-02  0.0
  3.499999940000e-01   1.400000006000e-01  0.0
  4.021931737500e-01   1.224999986500e-01  0.0
  4.543863535000e-01   1.049999967000e-01  0.0
  4.187500029500e-01   1.749999970000e-01  0.0
  4.709431827000e-01   1.574999950500e-01  0.0
  4.875000119000e-01   2.099999934000e-01  0.0
 -7.101409137000e-02  -4.349999130000e-02  0.0
 -8.313844725500e-02  -5.424998700500e-02  0.0
 -9.526280314000e-02  -6.499998271000e-02  0.0
 -6.449843011500e-02  -5.250913650000e-02  0.0
 -7.662278600000e-02  -6.325913220500e-02  0.0
 -5.798276886000e-02  -6.151828170000e-02  0.0
 -9.526280314000e-02  -6.499998271000e-02  0.0
 -1.226314045700e-01  -6.892856210000e-02  0.0
 -1.500000060000e-01  -7.285714149000e-02  0.0
 -1.051314026200e-01  -8.249999210500e-02  0.0
 -1.325000040500e-01  -8.642857149500e-02  0.0
 -1.150000021000e-01  -1.000000015000e-01  0.0
 -6.181925908000e-02  -1.656441018000e-02  0.0
 -7.051259093000e-02  -1.954082492500e-02  0.0
 -7.920592278000e-02  -2.251723967000e-02  0.0
 -5.862244405000e-02  -2.428220026000e-02  0.0
 -6.731577590000e-02  -2.725861500500e-02  0.0
 -5.542562902000e-02  -3.199999034000e-02  0.0
 -7.920592278000e-02  -2.251723967000e-02  0.0
 -9.272886069000e-02  -2.808184456000e-02  0.0
 -1.062517986000e-01  -3.364644945000e-02  0.0
 -7.511000707500e-02  -3.300861548500e-02  0.0
 -8.863294498500e-02  -3.857322037500e-02  0.0
 -7.101409137000e-02  -4.349999130000e-02  0.0
 -7.101409137000e-02  -4.349999130000e-02  0.0
 -6.321986019500e-02  -3.774999082000e-02  0.0
 -5.542562902000e-02  -3.199999034000e-02  0.0
 -7.511000707500e-02  -3.300861548500e-02  0.0
 -6.731577590000e-02  -2.725861500500e-02  0.0
 -7.920592278000e-02  -2.251723967000e-02  0.0
 -7.920592278000e-02  -2.251723967000e-02  0.0
 -9.460296109000e-02  -1.125860985166e-02  0.0
 -1.099999994000e-01   1.996667010000e-08  0.0
 -9.272886069000e-02  -2.808184456000e-02  0.0
 -1.081258990000e-01  -1.682321474166e-02  0.0
 -1.062517986000e-01  -3.364644945000e-02  0.0
 -7.778175920000e-02  -9.192386270000e-02  0.0
 -6.788226403000e-02  -7.672107220000e-02  0.0
 -5.798276886000e-02  -6.151828170000e-02  0.0
 -8.652228117000e-02  -7.846192270500e-02  0.0
 -7.662278600000e-02  -6.325913220500e-02  0.0
 -9.526280314000e-02  -6.499998271000e-02  0.0
 -7.101409137000e-02  -4.349999130000e-02  0.0
 -8.863294498500e-02  -3.857322037500e-02  0.0
 -1.062517986000e-01  -3.364644945000e-02  0.0
 -8.313844725500e-02  -5.424998700500e-02  0.0
 -1.007573008700e-01  -4.932321608000e-02  0.0
 -9.526280314000e-02  -6.499998271000e-02  0.0
 -7.778175920000e-02  -9.192386270000e-02  0.0
 -8.652228117000e-02  -7.846192270500e-02  0.0
 -9.526280314000e-02  -6.499998271000e-02  0.0
 -9.639088065000e-02  -9.596193210000e-02  0.0
 -1.051314026200e-01  -8.249999210500e-02  0.0
 -1.150000021000e-01  -1.000000015000e-01  0.0
[...]
POINT_DATA 2244
SCALARS field1 double 1
LOOKUP_TABLE default
  2.223237173004e-03 
  1.680993151036e-02 
  3.139662584772e-02 
  1.336608267192e-03 
  1.592330260455e-02 
  4.499793613786e-04 
  7.043169352413e-02 
  3.595496276014e-02 
  1.478231996142e-03 
  3.570154418490e-02 
  1.224813420901e-03 
  9.713948456606e-04 
  3.047307072315e-02 
  3.924403670591e-02 
  4.801500268867e-02 
  4.232464770619e-02 
  5.109561368895e-02 
  5.417622468922e-02 
  4.851797826929e-02 
  3.891615925086e-02 
  2.931434023242e-02 
  4.312322867581e-02 
  3.352140965738e-02 
  3.772847908233e-02 
  6.421222707313e-02 
  5.928911981412e-02 
  5.436601255510e-02 
  5.662608954036e-02 
  5.170298228134e-02 
  4.903995200758e-02 
  7.200205442520e-02 
  5.584253808742e-02 
  3.968302174964e-02 
  7.048737935964e-02 
  5.432786302186e-02 
  6.897270429408e-02 
  3.947688372909e-02 
  4.789289696336e-02 
  5.630891019764e-02 
  4.438829923639e-02 
  5.280431247067e-02 
  4.929971474370e-02 
  5.714237296005e-02 
  6.209611240468e-02 
  6.704985184931e-02 
  5.835964576563e-02 
  6.331338521026e-02 
  5.957691857121e-02 
  5.808124368645e-02 
  6.286892108823e-02 
  6.765659849001e-02 
  5.766150809397e-02 
  6.244918549575e-02 
  5.724177250148e-02 
  3.473231516850e-03 
  3.214868282500e-02 
  6.082413413316e-02 
  2.173854992460e-02 
  5.041400123275e-02 
  4.000386833234e-02 
  5.367027046749e-02 
  5.468737635481e-02 
  5.570448224214e-02 
  5.488889698511e-02 
  5.590600287243e-02 
  5.610752350272e-02 
  5.586228006516e-02 
  5.483092201808e-02 
  5.379956397100e-02 
  5.722677701794e-02 
  5.619541897086e-02 
  5.859127397071e-02 
  6.459922602460e-02 
  6.023382958804e-02 
  5.586843315149e-02 
  6.059249641972e-02 
  5.622709998317e-02 
  5.658576681484e-02 
  5.448030341707e-02 
  5.557282346051e-02 
  5.666534350395e-02 
  5.259993559257e-02 
  5.369245563601e-02 
  5.071956776808e-02 
  6.450541915672e-02 
  6.126731946468e-02 
  5.802921977265e-02 
  6.626724242476e-02 
  6.302914273273e-02 
  6.802906569281e-02 
  5.904805579960e-02 
  5.697468337101e-02 
  5.490131094243e-02 
  4.982267494937e-02 
  4.774930252078e-02 
  4.059729409914e-02 
  1.217713879253e-03 
  1.843139957961e-03 
  2.468566036669e-03 
  4.089783274271e-02 
  4.152325882141e-02 
  8.057795160616e-02 
  6.322616824822e-02 
  5.681224369652e-02 
  5.039831914483e-02 
  6.019637664327e-02 
  5.378245209157e-02 
  5.716658503832e-02 
  7.160562145129e-02 
  6.772275439469e-02 
  6.383988733809e-02 
  7.087559613992e-02 
  6.699272908332e-02 
  7.014557082855e-02 
  7.067392523093e-02 
  6.269939910512e-02 
  5.472487297930e-02 
  6.761957139770e-02 
  5.964504527188e-02 
  6.456521756446e-02 
  7.103681175225e-02 
  7.107950930212e-02 
  7.112220685199e-02 
  7.493291359184e-02 
  7.497561114171e-02 
  7.882901543143e-02 
  6.824129586785e-02 
  6.593905305142e-02 
  6.363681023499e-02 
  5.989318002198e-02 
  5.759093720555e-02 
  5.154506417610e-02 
  4.607928536904e-02 
  5.668827154557e-02 
  6.729725772210e-02 
  4.905086998391e-02 
  5.965985616043e-02 
  5.202245459877e-02 
  6.911188561605e-02 
  6.910366703486e-02 
  6.909544845366e-02 
  7.481097417567e-02 
  7.480275559448e-02 
  8.051006273529e-02 
  6.303886263616e-02 
  6.030373020590e-02 
  5.756859777564e-02 
  5.738731584615e-02 
  5.465218341589e-02 
  5.173576905614e-02 
  7.186317511987e-02 
  7.094419092899e-02 
  7.002520673812e-02 
  5.080968444845e-02 
  4.989070025757e-02 
  2.975619377703e-02 
  4.796253716531e-02 
  5.334943297897e-02 
  5.873632879263e-02 
  5.573633758631e-02 
  6.112323339997e-02 
  6.351013800731e-02 
  5.813078410447e-02 
  6.035783017369e-02 
  6.258487624292e-02 
  5.776711054856e-02 
  5.999415661779e-02 
  5.740343699265e-02 
  1.708079029583e-02 
  2.792596144548e-02 
  3.877113259514e-02 
  2.320044780339e-02 
  3.404561895304e-02 
  2.932010531094e-02 
  3.865916016976e-02 
  4.500263237886e-02 
  5.134610458796e-02 
  4.311258476857e-02 
  4.945605697767e-02 
  4.756600936737e-02 
  4.768465353847e-02 
  3.875636486209e-02 
  2.982807618572e-02 
  4.304804861300e-02 
  3.411975993663e-02 
  3.841144368754e-02 
  3.867052624199e-02 
  4.268618668029e-02 
  4.670184711859e-02 
  4.512733404033e-02 
  4.914299447863e-02 
  5.158414183868e-02 
  6.437498076021e-02 
  6.393016650041e-02 
  6.348535224060e-02 
  6.163543352926e-02 
  6.119061926945e-02 
  5.889588629831e-02 
  4.791046837966e-02 
  4.950475193594e-02 
  5.109903549222e-02 
  5.310713496600e-02 
  5.470141852228e-02 
  5.830380155233e-02 
  6.446396996532e-02 
  6.173294632015e-02 
  5.900192267498e-02 
  6.069911459021e-02 
  5.796809094504e-02 
  5.693425921510e-02 
  3.864261325539e-02 
  2.775877226625e-02 
  1.687493127711e-02 
  3.515830741205e-02 
  2.427446642292e-02 
  3.167400156872e-02 
  6.715368190165e-02 
  6.283876574949e-02 
  5.852384959734e-02 
  6.742054510031e-02 
  6.310562894816e-02 
  6.768740829898e-02 
  6.602182228771e-02 
  6.674395224084e-02 
  6.746608219398e-02 
  6.146729991459e-02 
  6.218942986772e-02 
  5.691277754147e-02 
  6.943676029509e-02 
  7.208432712923e-02 
  7.473189396337e-02 
  7.082270982153e-02 
  7.347027665567e-02 
  7.220865934796e-02 
  6.793927888056e-02 
  6.694209797490e-02 
  6.594491706923e-02 
  6.803635978061e-02 
  6.703917887495e-02 
  6.813344068067e-02 
  6.380179948158e-02 
  7.033425710972e-02 
  7.686671473787e-02 
  6.368678702125e-02 
  7.021924464939e-02 
  6.357177456092e-02 
  7.704263503111e-02 
  7.041721002112e-02 
  6.379178501114e-02 
  7.199736486356e-02 
  6.537193985358e-02 
  6.695209469602e-02 
  8.782676507400e-02 
  8.314528283451e-02 
  7.846380059501e-02 
  7.682108775470e-02 
  7.213960551521e-02 
  6.581541043541e-02 
  7.437931213156e-02 
  6.876014652248e-02 
  6.314098091340e-02 
  7.638165152906e-02 
  7.076248591998e-02 
  7.838399092656e-02 
  6.531203813834e-02 
  6.672397759480e-02 
  6.813591705126e-02 
  7.643775695451e-02 
  7.784969641097e-02 
  8.756347577068e-02 
  6.854821153067e-02 
  6.857970341522e-02 
  6.861119529977e-02 
  7.172601902021e-02 
  7.175751090477e-02 
  7.490382650976e-02 
  9.065078562504e-02 
  8.942116668461e-02 
  8.819154774418e-02 
  7.969812692334e-02 
  7.846850798291e-02 
  6.874546822165e-02 
  6.722715654489e-04 
  4.907347165296e-02 
  9.747467174047e-02 
  1.038678849834e-03 
  4.943987893734e-02 
  1.405086134218e-03 
  8.955894970311e-02 
  9.246050070864e-02 
  9.536205171418e-02 
  8.887535334667e-02 
  9.177690435221e-02 
  8.819175699023e-02 
  9.576088776308e-02 
  9.250619648763e-02 
  8.925150521218e-02 
  9.316033648801e-02 
  8.990564521256e-02 
  9.055978521293e-02 
  8.785438028389e-02 
  9.193833169587e-02 
  9.602228310785e-02 
  4.501836642041e-02 
  4.910231783238e-02 
  2.182352556917e-03 
  8.883558633400e-02 
  8.898812916743e-02 
  8.914067200086e-02 
  8.402102060775e-02 
  8.417356344118e-02 
  7.920645488151e-02 
  8.830034251055e-02 
  9.196772855952e-02 
  9.563511460849e-02 
  8.923782278161e-02 
  9.290520883057e-02 
  9.017530305266e-02 
  8.979826296696e-02 
  7.956711167409e-02 
  6.933596038123e-02 
  8.064347658608e-02 
  7.041232529321e-02 
  7.148869020519e-02 
  7.444030553031e-02 
  7.458197227085e-02 
  7.472363901140e-02 
  7.307030404149e-02 
  7.321197078204e-02 
  7.170030255267e-02 
  7.421001034574e-02 
  7.686281750519e-02 
  7.951562466464e-02 
  8.153643956023e-02 
  8.418924671968e-02 
  8.886286877472e-02 
 -4.768825953410e-04 
  1.510175466020e-02 
  3.068039191574e-02 
  5.915424221526e-04 
  1.617017967769e-02 
  1.659967439646e-03 
  3.038592281047e-02 
  3.883042144194e-02 
  4.727492007340e-02 
  4.250318540846e-02 
  5.094768403992e-02 
  5.462044800644e-02 
  7.032610919349e-02 
  3.831199570253e-02 
  6.297882211576e-03 
  3.494215525215e-02 
  2.928041761189e-03 
 -4.417986891976e-04 
 -6.845871566923e-04 
  2.710198903213e-03 
  6.104984963117e-03 
  8.085201460925e-03 
  1.147998752083e-02 
  1.685499007854e-02 
  1.222663298707e-04 
 -5.383546692679e-04 
 -1.198975668407e-03 
  1.435663646668e-02 
  1.369601546754e-02 
  2.859100660349e-02 
  6.479639841877e-02 
  3.424029151572e-02 
  3.684184612670e-03 
  5.381272025410e-02 
  2.325661335105e-02 
  4.282904208942e-02 
  3.056178965949e-02 
  4.307869223397e-02 
  5.559559480846e-02 
  1.637706552747e-02 
  2.889396810195e-02 
  2.192341395444e-03 
 -1.362267431245e-03 
  7.806427097761e-03 
  1.697512162677e-02 
  1.360044413171e-02 
  2.276913866071e-02 
  2.856315569466e-02 
  9.977284120540e-04 
  1.040129634741e-03 
  1.082530857428e-03 
  4.511376519641e-02 
  4.515616641910e-02 
  8.922980198076e-02 
  1.193860452228e-03 
  4.940495573731e-02 
  9.761605102240e-02 
  1.157639367737e-03 
  4.936873465282e-02 
  1.121418283245e-03 
  8.010795441863e-02 
  4.391693559512e-02 
  7.725916771601e-03 
  7.443506683844e-02 
  3.824404801492e-02 
  6.876217925824e-02 
  3.930293337121e-04 
  2.896852639924e-02 
  5.754402346476e-02 
  1.185596440745e-03 
  2.976109350627e-02 
  1.978163547777e-03 
  2.302251129218e-03 
  3.828459554830e-02 
  7.426693996738e-02 
  4.535672401971e-02 
  8.133906843879e-02 
  8.841119691021e-02 
  7.520604271982e-02 
  4.012344882548e-02 
  5.040854931140e-03 
  7.548732365423e-02 
  4.040472975989e-02 
  7.576860458864e-02 
  6.249460834832e-02 
  3.214619426280e-02 
  1.797780177279e-03 
  3.209498359701e-02 
  1.746569511490e-03 
  1.695358845701e-03 
  3.285386793957e-03 
  2.995803421203e-02 
  5.663068163010e-02 
  3.849985711852e-02 
  6.517250453659e-02 
  7.371432744308e-02 
  5.552868320799e-02 
  5.955521847243e-02 
  6.358175373688e-02 
  6.472382498356e-02 
  6.875036024800e-02 
  7.391896675913e-02 
  7.055736574619e-02 
  3.791715255283e-02 
  5.276939359469e-03 
  7.267005496396e-02 
  4.002984177059e-02 
  7.478274418172e-02 
  8.951205399340e-02 
  8.043909606083e-02 
  7.136613812826e-02 
  7.965649821362e-02 
  7.058354028105e-02 
  6.980094243383e-02 
  5.475724972107e-02 
  5.096894550374e-02 
  4.718064128641e-02 
  5.926467592915e-02 
  5.547637171182e-02 
  6.377210213723e-02 
  7.370855874282e-04 
  1.959871109895e-03 
  3.182656632362e-03 
  3.668773241430e-02 
  3.791051793677e-02 
  7.263837924118e-02 
  5.462671591793e-03 
  2.582950045346e-03 
 -2.967715011012e-04 
  2.427624856380e-03 
 -4.520966900675e-04 
 -6.074218790339e-04 
  6.699590081325e-02 
  6.718288349528e-02 
  6.736986617730e-02 
  5.897622421667e-02 
  5.916320689870e-02 
  5.095654762009e-02 
  7.035947296330e-02 
  7.428811090561e-02 
  7.821674884793e-02 
  7.487400186822e-02 
  7.880263981053e-02 
  7.938853077313e-02 
  7.802590112732e-02 
  7.367471246392e-02 
  6.932352380053e-02 
  7.447402719125e-02 
  7.012283852785e-02 
  7.092215325518e-02 
  6.811266181952e-02 
  7.338457834331e-02 
  7.865649486710e-02 
  6.836119359888e-02 
  7.363311012266e-02 
  6.860972537823e-02 
  7.103608356861e-02 
  7.032637715160e-02 
  6.961667073458e-02 
  6.304240477235e-02 
  6.233269835534e-02 
  5.504872597609e-02 
  2.083148683374e-02 
  1.468593976258e-02 
  8.540392691415e-03 
  5.327975848574e-02 
  4.713421141458e-02 
  8.572803013774e-02 
  6.668693125611e-02 
  5.650485124045e-02 
  4.632277122480e-02 
  5.911192272823e-02 
  4.892984271257e-02 
  5.153691420035e-02 
  6.688317321617e-02 
  6.705130180698e-02 
  6.721943039780e-02 
  5.603144934160e-02 
  5.619957793242e-02 
  4.517972546704e-02 
  3.823998857387e-02 
  4.470848352273e-02 
  5.117697847158e-02 
  4.262573680987e-02 
  4.909423175872e-02 
  4.701148504586e-02 
  5.154157114925e-02 
  4.450058119592e-02 
  3.745959124259e-02 
  4.200771241538e-02 
  3.496672246205e-02 
  3.247385368152e-02 
  5.051343987799e-02 
  5.066206126703e-02 
  5.081068265607e-02 
  5.335021905701e-02 
  5.349884044605e-02 
  5.618699823603e-02 
  5.059611348080e-02 
  5.065031819472e-02 
  5.070452290865e-02 
  4.437370352120e-02 
  4.442790823512e-02 
  3.815129356160e-02 
  6.463819601602e-02 
  6.056359712313e-02 
  5.648899823024e-02 
  6.529019360429e-02 
  6.121559471140e-02 
  6.594219119255e-02 
  5.120042300642e-02 
  5.354047480638e-02 
  5.588052660633e-02 
  5.877036112374e-02 
  6.111041292370e-02 
  6.634029924107e-02 
  3.776149882489e-02 
  3.465206022489e-02 
  3.154262162489e-02 
  2.710361100981e-02 
  2.399417240980e-02 
  1.644572319472e-02 
  3.791609760264e-02 
  4.261474970389e-02 
  4.731340180513e-02 
  3.499416272678e-02 
  3.969281482803e-02 
  3.207222785092e-02 
  4.706952472985e-02 
  4.274319665629e-02 
  3.841686858273e-02 
  3.962844424339e-02 
  3.530211616983e-02 
  3.218736375694e-02 
  6.584643489681e-02 
  6.112531723982e-02 
  5.640419958283e-02 
  6.279405634019e-02 
  5.807293868321e-02 
  5.974167778358e-02 
  5.411809299973e-02 
  5.202333851567e-02 
  4.992858403160e-02 
  4.219691362559e-02 
  4.010215914152e-02 
  3.027573425144e-02 
  5.466922538858e-02 
  6.163175728322e-02 
  6.859428917786e-02 
  5.262239831772e-02 
  5.958493021236e-02 
  5.057557124687e-02 
  2.955929154223e-02 
  3.526472357131e-02 
  4.097015560038e-02 
  1.509243078177e-02 
  2.079786281085e-02 
  6.255700213086e-04 
  4.160753140443e-02 
  3.530664236453e-02 
  2.900575332464e-02 
  4.625285594488e-02 
  3.995196690498e-02 
  5.089818048533e-02 
  6.838728957998e-02 
  3.599847817684e-02 
  3.609666773700e-03 
  3.462008423559e-02 
  2.231272832455e-03 
  8.528788912105e-04 
  1.329271569908e-02 
  7.619288671236e-03 
  1.945861643394e-03 
  4.668053145465e-02 
  4.100710442681e-02 
  8.006834721022e-02 
  5.228606937803e-02 
  5.510336557217e-02 
  5.792066176631e-02 
  4.756587218243e-02 
  5.038316837658e-02 
  4.284567498684e-02 
  7.251875855106e-02 
  3.671464521396e-02 
  9.105318768602e-04 
  4.211937987777e-02 
  6.315266540666e-03 
  1.172000120447e-02 
  5.841172094337e-02 
  6.152598340176e-02 
  6.464024586015e-02 
  5.821650166385e-02 
  6.133076412224e-02 
  5.802128238432e-02 
  6.464573463623e-02 
  6.204118956285e-02 
  5.943664448947e-02 
  6.091758195855e-02 
  5.831303688517e-02 
  5.718942928086e-02 
  5.446875486418e-02 
  5.633307122566e-02 
  5.819738758714e-02 
  5.890703220044e-02 
  6.077134856192e-02 
  6.334530953670e-02 
  5.730284677194e-02 
  5.628984260658e-02 
  5.527683844122e-02 
  5.797444050269e-02 
  5.696143633733e-02 
  5.864603423344e-02 
  6.447396993829e-02 
  6.186839587719e-02 
  5.926282181610e-02 
  6.720546864429e-02 
  6.459989458319e-02 
  6.993696735028e-02 
  5.595116711777e-02 
  5.925535449337e-02 
  6.255954186898e-02 
  4.970051893113e-02 
  5.300470630673e-02 
  4.344987074449e-02 
  6.447469001686e-02 
  6.658842352209e-02 
  6.870215702733e-02 
  6.191554197684e-02 
  6.402927548208e-02 
  5.935639393683e-02 
  5.916874152604e-02 
  5.781993802891e-02 
  5.647113453178e-02 
  5.629288583365e-02 
  5.494408233652e-02 
  5.341703014125e-02 
  6.678558254869e-02 
  6.318045879792e-02 
  5.957533504716e-02 
  5.975074048952e-02 
  5.614561673875e-02 
  5.271589843035e-02 
  6.637849687824e-02 
  6.804608727312e-02 
  6.971367766801e-02 
  3.682630966636e-02 
  3.849390006125e-02 
  7.274122454483e-03 
  5.610457002150e-02 
  5.373661870209e-02 
  5.136866738268e-02 
  6.112099660681e-02 
  5.875304528740e-02 
  6.613742319211e-02 
  3.846250617722e-02 
  5.697065699937e-02 
  7.547880782152e-02 
  5.285565817165e-02 
  7.136380899380e-02 
  6.724881016607e-02 
  5.913277140510e-03 
  2.820127295865e-03 
 -2.730225487791e-04 
  1.139735241894e-02 
  8.304202574301e-03 
  1.688142769738e-02 
  5.399257095931e-03 
  2.362800015137e-03 
 -6.736570656566e-04 
  2.630058410413e-03 
 -4.063986703802e-04 
 -1.391402751037e-04 
  1.711958940991e-02 
  8.871480814255e-03 
  6.233722186020e-04 
  2.446608101137e-02 
  1.621797241571e-02 
  3.181257261283e-02 
  4.993623135470e-02 
  4.114501508305e-02 
  3.235379881141e-02 
  2.485454006140e-02 
  1.606332378976e-02 
 -2.271512318925e-04 
  5.137337157987e-02 
  5.909293529791e-02 
  6.681249901595e-02 
  5.156015419522e-02 
  5.927971791326e-02 
  5.174693681058e-02 
  5.080047428949e-02 
  5.148049303591e-02 
  5.216051178233e-02 
  4.165014799903e-02 
  4.233016674544e-02 
  3.249982170856e-02 
  5.256058216863e-04 
  8.870948923459e-03 
  1.721629202523e-02 
  1.149100545008e-04 
  8.460253156273e-03 
 -2.957857126847e-04 
  3.766519410417e-02 
  2.726057316493e-02 
  1.685595222569e-02 
  3.488105605098e-02 
  2.447643511174e-02 
  3.209691799778e-02 
 -2.948042573604e-04 
  1.279664924489e-04 
  5.507372422583e-04 
  2.489717563870e-02 
  2.531994638850e-02 
  5.008915553475e-02 
  7.841247984517e-02 
  4.179245256367e-02 
  5.172425282178e-03 
  7.394167061778e-02 
  3.732164333629e-02 
  6.947086139040e-02 
  6.561724670103e-02 
  5.678722388882e-02 
  4.795720107660e-02 
  6.249120340214e-02 
  5.366118058992e-02 
  5.936516010324e-02 
  3.043325650915e-02 
  1.641315615541e-02 
  2.393055801683e-03 
  3.366959963723e-02 
  1.964949928350e-02 
  3.690594276531e-02 
  7.715950822367e-02 
  3.884021304678e-02 
  5.209178698878e-04 
  3.966965656713e-02 
  1.350361390239e-03 
  2.179804910591e-03 
  7.506738714103e-02 
  3.730503332669e-02 
 -4.573204876402e-04 
  3.814042052606e-02 
  3.780667117284e-04 
  1.213453911097e-03 
  6.963836881659e-02 
  3.677549126772e-02 
  3.912613718844e-03 
  6.435895104875e-02 
  3.149607349988e-02 
  5.907953328092e-02 
  5.017260140665e-02 
  2.515392861977e-02 
  1.352558328959e-04 
  6.196785442681e-02 
  3.694918163993e-02 
  7.376310744697e-02 
  5.255627553175e-02 
  6.064351244978e-02 
  6.873074936780e-02 
  5.884380442853e-02 
  6.693104134655e-02 
  6.513133332530e-02 
  9.178781925148e-02 
  4.638252603728e-02 
  9.772328230818e-04 
  4.692151106194e-02 
  1.516217847746e-03 
  2.055202872409e-03 
  6.638420913649e-02 
  7.026939613889e-02 
  7.415458314129e-02 
  7.221226868360e-02 
  7.609745568599e-02 
  7.804032823070e-02 
  7.346527823752e-02 
  7.023128304027e-02 
  6.699728784302e-02 
  6.221347087364e-02 
  5.897947567638e-02 
  5.096166350975e-02 
  6.757022662486e-02 
  6.775850752201e-02 
  6.794678841917e-02 
  6.740919454090e-02 
  6.759747543806e-02 
  6.724816245694e-02 
  6.863882483017e-02 
  6.451524081373e-02 
  6.039165679729e-02 
  6.813874102992e-02 
  6.401515701348e-02 
  6.763865722967e-02 
  6.850478869053e-02 
  6.626738521186e-02 
  6.402998173320e-02 
  7.301679860304e-02 
  7.077939512438e-02 
  7.752880851556e-02 
  7.832456353503e-02 
  8.356724772970e-02 
  8.880993192436e-02 
  7.319561808946e-02 
  7.843830228413e-02 
  6.806667264389e-02 
  7.804001990141e-02 
  7.637260544881e-02 
  7.470519099622e-02 
  8.365698412954e-02 
  8.198956967694e-02 
  8.927394835767e-02 
  6.631399660607e-02 
  7.185087225599e-02 
  7.738774790591e-02 
  6.523939512068e-02 
  7.077627077060e-02 
  6.416479363529e-02 
  8.971671810237e-02 
  9.190485295165e-02 
  9.409298780093e-02 
  8.975267540581e-02 
  9.194081025509e-02 
  8.978863270925e-02 
  8.964918596442e-02 
  8.281771327165e-02 
  7.598624057888e-02 
  4.650004115832e-02 
  3.966856846555e-02 
  3.350896352211e-03 
  6.957882698466e-02 
  7.914082868682e-02 
  8.870283038898e-02 
  7.961743125190e-02 
  8.917943295406e-02 
  8.965603551914e-02 
  8.867429571206e-02 
  7.874852284412e-02 
  6.882274997618e-02 
  7.812355026669e-02 
  6.819777739875e-02 
  6.757280482132e-02 
  7.729188741611e-02 
  7.334206169542e-02 
  6.939223597473e-02 
  7.504929164143e-02 
  7.109946592074e-02 
  7.280669586675e-02 
  6.801001573570e-02 
  7.299463378494e-02 
  7.797925183419e-02 
  6.792387013324e-02 
  7.290848818248e-02 
  6.783772453078e-02 
  8.928640139439e-02 
  8.933747669892e-02 
  8.938855200345e-02 
  9.180893383091e-02 
  9.186000913544e-02 
  9.433146626743e-02 
  8.949370393688e-02 
  8.944512921552e-02 
  8.939655449417e-02 
  8.368867827565e-02 
  8.364010355430e-02 
  7.788365261442e-02 
  3.888639521463e-03 
  4.891993860834e-02 
  9.395123769521e-02 
  4.722269327052e-02 
  9.225399235739e-02 
  9.055674701957e-02 