# vtk DataFile Version 2
NuDG++ 2D simulation
ASCII
DATASET UNSTRUCTURED_GRID

POINTS 2244 double
 -1.656250060000e-01  -2.000000030000e-01  0.0
 -1.828125045000e-01  -1.772221997500e-01  0.0
 -2.000000030000e-01  -1.544443965000e-01  0.0
 -1.828125045000e-01  -2.000000030000e-01  0.0
 -2.000000030000e-01  -1.772221997500e-01  0.0
 -2.000000030000e-01  -2.000000030000e-01  0.0
 -6.428571790000e-02  -1.700000018000e-01  0.0
 -8.058035746000e-02  -1.850000024000e-01  0.0
 -9.687499702000e-02  -2.000000030000e-01  0.0
 -6.339285895000e-02  -1.850000024000e-01  0.0
 -7.968749851000e-02  -2.000000030000e-01  0.0
 -6.250000000000e-02  -2.000000030000e-01  0.0
 -2.000000030000e-01  -1.544443965000e-01  0.0
 -1.750000045000e-01  -1.379364989500e-01  0.0
 -1.500000060000e-01  -1.214286014000e-01  0.0
 -2.000000030000e-01  -1.316666491500e-01  0.0
 -1.750000045000e-01  -1.151587516000e-01  0.0
 -2.000000030000e-01  -1.088889018000e-01  0.0
 -1.500000060000e-01  -1.214286014000e-01  0.0
 -1.750000045000e-01  -1.379364989500e-01  0.0
 -2.000000030000e-01  -1.544443965000e-01  0.0
 -1.500000060000e-01  -1.457143016000e-01  0.0
 -1.750000045000e-01  -1.622221991500e-01  0.0
 -1.500000060000e-01  -1.700000018000e-01  0.0
 -1.500000060000e-01  -7.285714149000e-02  0.0
 -1.750000045000e-01  -9.087302164500e-02  0.0
 -2.000000030000e-01  -1.088889018000e-01  0.0
 -1.500000060000e-01  -9.714287144500e-02  0.0
 -1.750000045000e-01  -1.151587516000e-01  0.0
 -1.500000060000e-01  -1.214286014000e-01  0.0
  1.832975030000e+00  -4.625000060000e-02  0.0
  1.853987515000e+00  -1.231250018000e-01  0.0
  1.875000000000e+00  -2.000000030000e-01  0.0
  1.916487515000e+00  -7.187499851000e-02  0.0
  1.937500000000e+00  -1.487499997100e-01  0.0
  2.000000000000e+00  -9.749999642000e-02  0.0
 -1.500000060000e-01  -1.700000018000e-01  0.0
 -1.360000037000e-01  -1.525000036000e-01  0.0
 -1.220000014000e-01  -1.350000054000e-01  0.0
 -1.500000060000e-01  -1.457143016000e-01  0.0
 -1.360000037000e-01  -1.282143034000e-01  0.0
 -1.500000060000e-01  -1.214286014000e-01  0.0
  2.849999964000e-01  -2.333333530000e-02  0.0
  2.837499976000e-01  -8.166666795000e-02  0.0
  2.824999988000e-01  -1.400000006000e-01  0.0
  3.174999952000e-01  -4.666666780000e-02  0.0
  3.162499964000e-01  -1.050000004500e-01  0.0
  3.499999940000e-01  -7.000000030000e-02  0.0
 -1.071429029000e-01  -1.700000018000e-01  0.0
 -8.571431040000e-02  -1.700000018000e-01  0.0
 -6.428571790000e-02  -1.700000018000e-01  0.0
 -9.857145324000e-02  -1.525000036000e-01  0.0
 -7.714286074000e-02  -1.525000036000e-01  0.0
 -9.000000358000e-02  -1.350000054000e-01  0.0
 -1.312499940000e-01  -2.000000030000e-01  0.0
 -1.191964484500e-01  -1.850000024000e-01  0.0
 -1.071429029000e-01  -1.700000018000e-01  0.0
 -1.406250000000e-01  -1.850000024000e-01  0.0
 -1.285714544500e-01  -1.700000018000e-01  0.0
 -1.500000060000e-01  -1.700000018000e-01  0.0
 -1.220000014000e-01  -1.350000054000e-01  0.0
 -1.060000024900e-01  -1.350000054000e-01  0.0
 -9.000000358000e-02  -1.350000054000e-01  0.0
 -1.185000017500e-01  -1.175000034500e-01  0.0
 -1.025000028400e-01  -1.175000034500e-01  0.0
 -1.150000021000e-01  -1.000000015000e-01  0.0
 -9.000000358000e-02  -1.350000054000e-01  0.0
 -1.060000024900e-01  -1.350000054000e-01  0.0
 -1.220000014000e-01  -1.350000054000e-01  0.0
 -9.857145324000e-02  -1.525000036000e-01  0.0
 -1.145714521500e-01  -1.525000036000e-01  0.0
 -1.071429029000e-01  -1.700000018000e-01  0.0
 -7.778175920000e-02  -9.192386270000e-02  0.0
 -9.639088065000e-02  -9.596193210000e-02  0.0
 -1.150000021000e-01  -1.000000015000e-01  0.0
 -8.389088139000e-02  -1.134619340500e-01  0.0
 -1.025000028400e-01  -1.175000034500e-01  0.0
 -9.000000358000e-02  -1.350000054000e-01  0.0
 -1.220000014000e-01  -1.350000054000e-01  0.0
 -1.185000017500e-01  -1.175000034500e-01  0.0
 -1.150000021000e-01  -1.000000015000e-01  0.0
 -1.360000037000e-01  -1.282143034000e-01  0.0
 -1.325000040500e-01  -1.107143014500e-01  0.0
 -1.500000060000e-01  -1.214286014000e-01  0.0
 -7.778175920000e-02  -9.192386270000e-02  0.0
 -8.389088139000e-02  -1.134619340500e-01  0.0
 -9.000000358000e-02  -1.350000054000e-01  0.0
 -6.639088876500e-02  -1.022535823500e-01  0.0
 -7.250001095500e-02  -1.237916537000e-01  0.0
 -5.500001833000e-02  -1.125833020000e-01  0.0
 -1.071429029000e-01  -1.700000018000e-01  0.0
 -1.145714521500e-01  -1.525000036000e-01  0.0
 -1.220000014000e-01  -1.350000054000e-01  0.0
 -1.285714544500e-01  -1.700000018000e-01  0.0
 -1.360000037000e-01  -1.525000036000e-01  0.0
 -1.500000060000e-01  -1.700000018000e-01  0.0
  6.250000093000e-03  -2.000000030000e-01  0.0
  4.062500153650e-02  -2.000000030000e-01  0.0
  7.500000298000e-02  -2.000000030000e-01  0.0
  1.383928512150e-02  -1.850000024000e-01  0.0
  4.821428656500e-02  -1.850000024000e-01  0.0
  2.142857015000e-02  -1.700000018000e-01  0.0
 -1.500000060000e-01  -7.285714149000e-02  0.0
 -1.500000060000e-01  -9.714287144500e-02  0.0
 -1.500000060000e-01  -1.214286014000e-01  0.0
 -1.325000040500e-01  -8.642857149500e-02  0.0
 -1.325000040500e-01  -1.107143014500e-01  0.0
 -1.150000021000e-01  -1.000000015000e-01  0.0
 -2.000000030000e-01  -6.333333254000e-02  0.0
 -1.750000045000e-01  -6.809523701500e-02  0.0
 -1.500000060000e-01  -7.285714149000e-02  0.0
 -1.750000045000e-01  -4.380952660000e-02  0.0
 -1.500000060000e-01  -4.857143107500e-02  0.0
 -1.500000060000e-01  -2.428572066000e-02  0.0
 -2.000000030000e-01  -6.333333254000e-02  0.0
 -2.000000030000e-01  -8.611111717000e-02  0.0
 -2.000000030000e-01  -1.088889018000e-01  0.0
 -1.750000045000e-01  -6.809523701500e-02  0.0
 -1.750000045000e-01  -9.087302164500e-02  0.0
 -1.500000060000e-01  -7.285714149000e-02  0.0
 -2.000000030000e-01  -6.333333254000e-02  0.0
 -1.750000045000e-01  -4.380952660000e-02  0.0
 -1.500000060000e-01  -2.428572066000e-02  0.0
 -2.000000030000e-01  -4.055555630500e-02  0.0
 -1.750000045000e-01  -2.103175036500e-02  0.0
 -2.000000030000e-01  -1.777778007000e-02  0.0
 -1.500000060000e-01  -2.428572066000e-02  0.0
 -1.500000060000e-01  -4.857143107500e-02  0.0
 -1.500000060000e-01  -7.285714149000e-02  0.0
 -1.281259023000e-01  -2.896608505500e-02  0.0
 -1.281259023000e-01  -5.325179547000e-02  0.0
 -1.062517986000e-01  -3.364644945000e-02  0.0
 -1.099999994000e-01   1.996667010000e-08  0.0
 -1.300000027000e-01  -1.214285034666e-02  0.0
 -1.500000060000e-01  -2.428572066000e-02  0.0
 -1.081258990000e-01  -1.682321474166e-02  0.0
 -1.281259023000e-01  -2.896608505500e-02  0.0
 -1.062517986000e-01  -3.364644945000e-02  0.0
 -1.500000060000e-01  -2.428572066000e-02  0.0
 -1.500000060000e-01   0.000000000000e+00  0.0
 -1.500000060000e-01   2.428572066000e-02  0.0
 -1.750000045000e-01  -2.103175036500e-02  0.0
 -1.750000045000e-01   3.253970295000e-03  0.0
 -2.000000030000e-01  -1.777778007000e-02  0.0
 -1.500000060000e-01  -7.285714149000e-02  0.0
 -1.226314045700e-01  -6.892856210000e-02  0.0
 -9.526280314000e-02  -6.499998271000e-02  0.0
 -1.281259023000e-01  -5.325179547000e-02  0.0
 -1.007573008700e-01  -4.932321608000e-02  0.0
 -1.062517986000e-01  -3.364644945000e-02  0.0
  3.499999940000e-01   1.400000006000e-01  0.0
  4.021931737500e-01   1.224999986500e-01  0.0
  4.543863535000e-01   1.049999967000e-01  0.0
  4.187500029500e-01   1.749999970000e-01  0.0
  4.709431827000e-01   1.574999950500e-01  0.0
  4.875000119000e-01   2.099999934000e-01  0.0
 -7.101409137000e-02  -4.349999130000e-02  0.0
 -8.313844725500e-02  -5.424998700500e-02  0.0
 -9.526280314000e-02  -6.499998271000e-02  0.0
 -6.449843011500e-02  -5.250913650000e-02  0.0
 -7.662278600000e-02  -6.325913220500e-02  0.0
 -5.798276886000e-02  -6.151828170000e-02  0.0
 -9.526280314000e-02  -6.499998271000e-02  0.0
 -1.226314045700e-01  -6.892856210000e-02  0.0
 -1.500000060000e-01  -7.285714149000e-02  0.0
 -1.051314026200e-01  -8.249999210500e-02  0.0
 -1.325000040500e-01  -8.642857149500e-02  0.0
 -1.150000021000e-01  -1.000000015000e-01  0.0
 -6.181925908000e-02  -1.656441018000e-02  0.0
 -7.051259093000e-02  -1.954082492500e-02  0.0
 -7.920592278000e-02  -2.251723967000e-02  0.0
 -5.862244405000e-02  -2.428220026000e-02  0.0
 -6.731577590000e-02  -2.725861500500e-02  0.0
 -5.542562902000e-02  -3.199999034000e-02  0.0
 -7.920592278000e-02  -2.251723967000e-02  0.0
 -9.272886069000e-02  -2.808184456000e-02  0.0
 -1.062517986000e-01  -3.364644945000e-02  0.0
 -7.511000707500e-02  -3.300861548500e-02  0.0
 -8.863294498500e-02  -3.857322037500e-02  0.0
 -7.101409137000e-02  -4.349999130000e-02  0.0
 -7.101409137000e-02  -4.349999130000e-02  0.0
 -6.321986019500e-02  -3.774999082000e-02  0.0
 -5.542562902000e-02  -3.199999034000e-02  0.0
 -7.511000707500e-02  -3.300861548500e-02  0.0
 -6.731577590000e-02  -2.725861500500e-02  0.0
 -7.920592278000e-02  -2.251723967000e-02  0.0
 -7.920592278000e-02  -2.251723967000e-02  0.0
 -9.460296109000e-02  -1.125860985166e-02  0.0
 -1.099999994000e-01   1.996667010000e-08  0.0
 -9.272886069000e-02  -2.808184456000e-02  0.0
 -1.081258990000e-01  -1.682321474166e-02  0.0
 -1.062517986000e-01  -3.364644945000e-02  0.0
 -7.778175920000e-02  -9.192386270000e-02  0.0
 -6.788226403000e-02  -7.672107220000e-02  0.0
 -5.798276886000e-02  -6.151828170000e-02  0.0
 -8.652228117000e-02  -7.846192270500e-02  0.0
 -7.662278600000e-02  -6.325913220500e-02  0.0
 -9.526280314000e-02  -6.499998271000e-02  0.0
 -7.101409137000e-02  -4.349999130000e-02  0.0
 -8.863294498500e-02  -3.857322037500e-02  0.0
 -1.062517986000e-01  -3.364644945000e-02  0.0
 -8.313844725500e-02  -5.424998700500e-02  0.0
 -1.007573008700e-01  -4.932321608000e-02  0.0
 -9.526280314000e-02  -6.499998271000e-02  0.0
 -7.778175920000e-02  -9.192386270000e-02  0.0
 -8.652228117000e-02  -7.846192270500e-02  0.0
 -9.526280314000e-02  -6.499998271000e-02  0.0
 -9.639088065000e-02  -9.596193210000e-02  0.0
 -1.051314026200e-01  -8.249999210500e-02  0.0
 -1.150000021000e-01  -1.000000015000e-01  0.0
[...]
POINT_DATA 2244
SCALARS field1 double 1
LOOKUP_TABLE default
  2.885443399474e-03 
  1.084794162898e-01 
  2.140733891801e-01 
  1.332320094469e-03 
  1.069262929848e-01 
 -2.208032105360e-04 
  3.178824879325e-01 
  1.580639519901e-01 
 -1.754583952265e-03 
  1.598948379391e-01 
  7.630199675517e-05 
  1.907187945775e-03 
  2.116673713504e-01 
  2.737324657636e-01 
  3.357975601768e-01 
  2.917384594198e-01 
  3.538035538330e-01 
  3.718095474891e-01 
  3.368797461268e-01 
  2.741794813138e-01 
  2.114792165007e-01 
  2.536469851078e-01 
  1.909467202947e-01 
  1.704142240888e-01 
  4.625176135889e-01 
  4.173841595447e-01 
  3.722507055006e-01 
  4.013887694661e-01 
  3.562553154220e-01 
  3.402599253433e-01 
  2.733859519132e-01 
  1.100822657879e-01 
 -5.322142033727e-02 
  3.136532181172e-01 
  1.503495319920e-01 
  3.539204843213e-01 
  1.709785476455e-01 
  2.447964237057e-01 
  3.186142997659e-01 
  2.544673511112e-01 
  3.282852271714e-01 
  3.379561545769e-01 
  4.452513467034e-01 
  4.292913530667e-01 
  4.133313594299e-01 
  4.479499511219e-01 
  4.319899574852e-01 
  4.506485555404e-01 
  2.335623978157e-01 
  2.757517123266e-01 
  3.179410268374e-01 
  2.967245374811e-01 
  3.389138519920e-01 
  3.598866771465e-01 
  1.843997325157e-04 
  1.171212286263e-01 
  2.340580575200e-01 
  8.284895885776e-02 
  1.997857877515e-01 
  1.655135179830e-01 
  3.150489888805e-01 
  3.364395681412e-01 
  3.578301474019e-01 
  3.724144762070e-01 
  3.938050554676e-01 
  4.297799635334e-01 
  3.569783363362e-01 
  3.361547672076e-01 
  3.153311980790e-01 
  2.951716857324e-01 
  2.743481166038e-01 
  2.333650351286e-01 
  4.745262971932e-01 
  4.520232623057e-01 
  4.295202274181e-01 
  4.177982195053e-01 
  3.952951846178e-01 
  3.610701418174e-01 
  3.169275813272e-01 
  3.731173195034e-01 
  4.293070576795e-01 
  3.279330858361e-01 
  3.841228240123e-01 
  3.389385903450e-01 
  4.749260504169e-01 
  4.174465898473e-01 
  3.599671292778e-01 
  4.796637983133e-01 
  4.221843377438e-01 
  4.844015462097e-01 
  2.322607320582e-01 
  2.753535882951e-01 
  3.184464445319e-01 
  2.007519385942e-01 
  2.438447948311e-01 
  1.692431451302e-01 
  1.395742037116e-03 
  3.578386559204e-03 
  5.761031081293e-03 
  2.286673018438e-01 
  2.308499463659e-01 
  4.559388616506e-01 
  4.620759724046e-01 
  4.007642854372e-01 
  3.394525984699e-01 
  4.454152958151e-01 
  3.841036088477e-01 
  4.287546192256e-01 
  4.798566928546e-01 
  4.693417072832e-01 
  4.588267217118e-01 
  4.924866783887e-01 
  4.819716928173e-01 
  5.051166639227e-01 
  4.785604911982e-01 
  4.256186383517e-01 
  3.726767855052e-01 
  4.692072756032e-01 
  4.162654227567e-01 
  4.598540600083e-01 
  4.813537228859e-01 
  4.934079056522e-01 
  5.054620884184e-01 
  5.076538414865e-01 
  5.197080242528e-01 
  5.339539600871e-01 
  5.054591672624e-01 
  4.840994009428e-01 
  4.627396346233e-01 
  4.726840912515e-01 
  4.513243249319e-01 
  4.399090152405e-01 
  4.145069566163e-01 
  4.602329307593e-01 
  5.059589049023e-01 
  4.244587517662e-01 
  4.701847259092e-01 
  4.344105469162e-01 
  5.005445496295e-01 
  5.069990198492e-01 
  5.134534900689e-01 
  5.175744962387e-01 
  5.240289664584e-01 
  5.346044428478e-01 
  4.617039968607e-01 
  4.496305893038e-01 
  4.375571817469e-01 
  4.500331156871e-01 
  4.379597081302e-01 
  4.383622345136e-01 
  4.030942240884e-01 
  4.510909640258e-01 
  4.990877039631e-01 
  2.353681872082e-01 
  2.833649271455e-01 
  6.764215032790e-02 
  4.061396704888e-01 
  4.252969064275e-01 
  4.444541423662e-01 
  4.537511793554e-01 
  4.729084152940e-01 
  5.013626882219e-01 
  4.393913339037e-01 
  4.506993045602e-01 
  4.620072752167e-01 
  4.355265797211e-01 
  4.468345503775e-01 
  4.316618255384e-01 
  1.577406849507e-01 
  2.381112876501e-01 
  3.184818903495e-01 
  2.078401102731e-01 
  2.882107129725e-01 
  2.579395355956e-01 
  3.062603265692e-01 
  3.693062758294e-01 
  4.323522250896e-01 
  3.562557422501e-01 
  4.193016915103e-01 
  4.062511579310e-01 
  4.075806414047e-01 
  3.359621075987e-01 
  2.643435737928e-01 
  3.606831544285e-01 
  2.890646206225e-01 
  3.137856674522e-01 
  3.052316841132e-01 
  3.574207976717e-01 
  4.096099112302e-01 
  3.696904757555e-01 
  4.218795893141e-01 
  4.341492673979e-01 
  4.752244948270e-01 
  4.904168698467e-01 
  5.056092448663e-01 
  4.588803471784e-01 
  4.740727221980e-01 
  4.425361995298e-01 
  4.089685716364e-01 
  4.220629662404e-01 
  4.351573608444e-01 
  4.276816361335e-01 
  4.407760307375e-01 
  4.463947006306e-01 
  4.704228363146e-01 
  4.547306481983e-01 
  4.390384600820e-01 
  4.499332933653e-01 
  4.342411052491e-01 
  4.294437504161e-01 
  3.143401364532e-01 
  2.387125707937e-01 
  1.630850051342e-01 
  2.996800586725e-01 
  2.240524930130e-01 
  2.850199808918e-01 
  4.834362207337e-01 
  4.218270606977e-01 
  3.602179006618e-01 
  4.011708239344e-01 
  3.395616638984e-01 
  3.189054271351e-01 
  3.022728785051e-01 
  3.254246249975e-01 
  3.485763714900e-01 
  3.672293576287e-01 
  3.903811041211e-01 
  4.321858367522e-01 
  5.024111131728e-01 
  4.518871631032e-01 
  4.013632130336e-01 
  5.253052575891e-01 
  4.747813075195e-01 
  5.481994020054e-01 
  4.987000274198e-01 
  4.900573003804e-01 
  4.814145733409e-01 
  4.089767980158e-01 
  4.003340709764e-01 
  3.192535686118e-01 
  4.730170544289e-01 
  5.335364202026e-01 
  5.940557859762e-01 
  4.886033984478e-01 
  5.491227642214e-01 
  5.041897424666e-01 
  5.971847408319e-01 
  5.354956755187e-01 
  4.738066102056e-01 
  5.441994832328e-01 
  4.825104179197e-01 
  4.912142256338e-01 
  6.792626815068e-01 
  6.392180276300e-01 
  5.991733737531e-01 
  5.830198426043e-01 
  5.429751887274e-01 
  4.867770037017e-01 
  5.725063424212e-01 
  5.379812161905e-01 
  5.034560899599e-01 
  5.875706028283e-01 
  5.530454765976e-01 
  6.026348632354e-01 
  4.832058382273e-01 
  4.946268777517e-01 
  5.060479172762e-01 
  5.829489746187e-01 
  5.943700141431e-01 
  6.826921110101e-01 
  5.013472449681e-01 
  4.110635783375e-01 
  3.207799117069e-01 
  4.513051651884e-01 
  3.610214985578e-01 
  4.012630854086e-01 
  7.290807698352e-01 
  7.071327734232e-01 
  6.851847770111e-01 
  6.192147049010e-01 
  5.972667084890e-01 
  5.093486399668e-01 
  2.539242521483e-04 
  2.771698581704e-01 
  5.540857920886e-01 
 -4.351216736193e-03 
  2.725647171821e-01 
 -8.956357724533e-03 
  6.976684730354e-01 
  6.397607770278e-01 
  5.818530810201e-01 
  6.593161624569e-01 
  6.014084664492e-01 
  6.209638518784e-01 
  5.771174452420e-01 
  6.374637179285e-01 
  6.978099906151e-01 
  6.455537896774e-01 
  7.059000623639e-01 
  7.139901341128e-01 
  6.188742357755e-01 
  5.974938129065e-01 
  5.761133900375e-01 
  3.156294320511e-01 
  2.942490091821e-01 
  1.238462832669e-02 
  6.840868449821e-01 
  6.538430294811e-01 
  6.235992139801e-01 
  6.438480838964e-01 
  6.136042683955e-01 
  6.036093228108e-01 
  6.731144993532e-01 
  6.155261235683e-01 
  5.579377477834e-01 
  6.967305983092e-01 
  6.391422225243e-01 
  7.203466972652e-01 
  7.299877049132e-01 
  6.198881892876e-01 
  5.097886736621e-01 
  6.388417637921e-01 
  5.287422481665e-01 
  5.476958226709e-01 
  4.021713600568e-01 
  4.232401642281e-01 
  4.443089683994e-01 
  4.755811679607e-01 
  4.966499721320e-01 
  5.489909758646e-01 
  5.700120935816e-01 
  5.895986893311e-01 
  6.091852850806e-01 
  5.951676457684e-01 
  6.147542415179e-01 
  6.203231979553e-01 
 -1.585358869397e-03 
  1.337747434564e-01 
  2.691348457822e-01 
  6.210735457511e-03 
  1.415708377833e-01 
  1.400682978442e-02 
  2.646725502914e-01 
  3.334131924201e-01 
  4.021538345488e-01 
  3.463941368689e-01 
  4.151347789977e-01 
  4.281157234465e-01 
  3.916631440443e-01 
  1.985685671823e-01 
  5.473990320399e-03 
  1.963488754099e-01 
  3.254298547949e-03 
  1.034606775499e-03 
 -1.115414109355e-02 
  2.340293609877e-02 
  5.796001329110e-02 
  7.197149895437e-02 
  1.065285761467e-01 
  1.550971390023e-01 
  5.129408420662e-03 
 -3.203685527157e-03 
 -1.153677947498e-02 
  1.291416034037e-01 
  1.208085094558e-01 
  2.531537983867e-01 
  2.699185100901e-01 
  1.357451689627e-01 
  1.571827835260e-03 
  2.401271991212e-01 
  1.059538579938e-01 
  2.103358881523e-01 
  2.664647613694e-01 
  3.529837623578e-01 
  4.395027633461e-01 
  1.428354014926e-01 
  2.293544024809e-01 
  1.920604161575e-02 
 -1.596567964145e-02 
  6.791940429257e-02 
  1.518044882266e-01 
  1.178602916963e-01 
  2.017453756303e-01 
  2.516862630340e-01 
  5.265035310365e-03 
  6.077791677698e-03 
  6.890548045031e-03 
  3.133873923802e-01 
  3.142001487476e-01 
  6.215097494501e-01 
  1.134890281137e-02 
  2.939340295728e-01 
  5.765191563343e-01 
  6.089474143338e-03 
  2.886746009048e-01 
  8.300454753067e-04 
  4.281375935273e-01 
  2.153711246313e-01 
  2.604655735284e-03 
  3.895636243907e-01 
  1.767971554947e-01 
  3.509896552541e-01 
  4.665879729398e-03 
  2.330117780516e-01 
  4.613576763738e-01 
  1.239657811894e-02 
  2.407424764411e-01 
  2.012727650848e-02 
  1.642476751323e-02 
  2.931497967446e-01 
  5.698748259759e-01 
  3.153883089795e-01 
  5.921133382108e-01 
  6.143518504458e-01 
  4.032895058057e-01 
  2.059829968941e-01 
  8.676487982559e-03 
  4.232272753386e-01 
  2.259207664270e-01 
  4.431650448714e-01 
  2.386943895443e-01 
  1.198908010660e-01 
  1.087212587580e-03 
  1.213053645555e-01 
  2.501776077165e-03 
  3.916339566749e-03 
  2.998736955387e-02 
  2.421220242094e-01 
  4.542566788650e-01 
  2.990366608096e-01 
  5.111713154651e-01 
  5.680859520652e-01 
  4.378774834219e-01 
  4.710980395855e-01 
  5.043185957491e-01 
  5.039956556397e-01 
  5.372162118033e-01 
  5.701138278575e-01 
  3.256369597824e-01 
  1.670959124835e-01 
  8.554865184497e-03 
  3.605702655251e-01 
  2.020292182261e-01 
  3.955035712677e-01 
  7.277933145998e-01 
  6.362087355972e-01 
  5.446241565945e-01 
  6.585872828930e-01 
  5.670027038903e-01 
  5.893812511861e-01 
  4.308614039751e-01 
  4.159665016051e-01 
  4.010715992351e-01 
  4.685067683755e-01 
  4.536118660055e-01 
  5.061521327759e-01 
  1.667249104384e-03 
  4.651955192022e-03 
  7.636661279659e-03 
  1.655491617362e-01 
  1.685338678238e-01 
  3.294310743679e-01 
  5.085906488297e-02 
  2.289505199400e-02 
 -5.068960894973e-03 
  2.322721761798e-02 
 -4.736795270994e-03 
 -4.404629647014e-03 
  4.860149108378e-01 
  4.991933116983e-01 
  5.123717125588e-01 
  4.686331295216e-01 
  4.818115303821e-01 
  4.512513482054e-01 
  5.143764534274e-01 
  5.233938747327e-01 
  5.324112960380e-01 
  5.249167902947e-01 
  5.339342116000e-01 
  5.354571271620e-01 
  5.311649300395e-01 
  5.059887996854e-01 
  4.808126693313e-01 
  5.050374604184e-01 
  4.798613300643e-01 
  4.789099907973e-01 
  4.813942653858e-01 
  5.057935589087e-01 
  5.301928524316e-01 
  4.962838412571e-01 
  5.206831347800e-01 
  5.111734171285e-01 
  4.779735774943e-01 
  4.802760641676e-01 
  4.825785508410e-01 
  4.257752476757e-01 
  4.280777343491e-01 
  3.735769178572e-01 
 -2.762332654634e-02 
 -5.597970283336e-02 
 -8.433607912038e-02 
  1.283362796696e-01 
  9.997990338261e-02 
  2.842958858856e-01 
  5.148174203348e-01 
  4.654765037305e-01 
  4.161355871261e-01 
  4.800688744412e-01 
  4.307279578368e-01 
  4.453203285475e-01 
  5.145505488459e-01 
  5.090507692888e-01 
  5.035509897316e-01 
  4.671080746036e-01 
  4.616082950465e-01 
  4.196656003613e-01 
  3.103278329718e-01 
  3.779163740883e-01 
  4.455049152048e-01 
  3.613560390659e-01 
  4.289445801824e-01 
  4.123842451600e-01 
  4.228091706512e-01 
  3.686891287545e-01 
  3.145690868579e-01 
  3.492972884181e-01 
  2.951772465214e-01 
  2.757854061850e-01 
  4.441927961273e-01 
  4.289965189552e-01 
  4.138002417830e-01 
  4.487086373491e-01 
  4.335123601770e-01 
  4.532244785709e-01 
  4.135198814770e-01 
  4.274097412445e-01 
  4.412996010120e-01 
  3.624603797306e-01 
  3.763502394981e-01 
  3.114008779842e-01 
  4.793969605344e-01 
  4.648910232121e-01 
  4.503850858898e-01 
  5.001323999279e-01 
  4.856264626055e-01 
  5.208678393213e-01 
  4.486638060566e-01 
  4.495419973717e-01 
  4.504201886867e-01 
  4.676800388795e-01 
  4.685582301946e-01 
  4.866962717024e-01 
  3.156217487899e-01 
  2.990437866164e-01 
  2.824658244428e-01 
  2.407379362466e-01 
  2.241599740731e-01 
  1.658541237034e-01 
  3.108263652305e-01 
  3.603072133560e-01 
  4.097880614815e-01 
  2.956547705834e-01 
  3.451356187089e-01 
  2.804831759363e-01 
  4.076826827390e-01 
  3.573076414988e-01 
  3.069326002585e-01 
  3.451375546845e-01 
  2.947625134443e-01 
  2.825924266300e-01 
  4.854906257923e-01 
  4.699462350976e-01 
  4.544018444029e-01 
  4.661550131057e-01 
  4.506106224109e-01 
  4.468194004190e-01 
  3.727166746094e-01 
  3.673919987317e-01 
  3.620673228541e-01 
  2.923815734532e-01 
  2.870568975755e-01 
  2.120464722969e-01 
  3.737043527037e-01 
  4.290806921213e-01 
  4.844570315389e-01 
  3.694337872891e-01 
  4.248101267067e-01 
  3.651632218745e-01 
  2.104303197000e-01 
  2.108474657118e-01 
  2.112646117236e-01 
  1.051831756937e-01 
  1.056003217055e-01 
 -6.396831259803e-05 
  2.131202746214e-01 
  2.120529616846e-01 
  2.109856487478e-01 
  2.879672583854e-01 
  2.868999454487e-01 
  3.628142421495e-01 
  2.798773129267e-01 
  1.426616140897e-01 
  5.445915252781e-03 
  1.397169477776e-01 
  2.501248940681e-03 
 -4.434173714189e-04 
  3.338830221738e-02 
  1.746365699820e-02 
  1.539011779034e-03 
  2.311109163900e-01 
  2.151862711709e-01 
  4.288335305627e-01 
  3.633915614715e-01 
  3.529382838940e-01 
  3.424850063164e-01 
  2.885340646239e-01 
  2.780807870464e-01 
  2.136765677763e-01 
  3.970726593144e-01 
  1.980337644613e-01 
 -1.005130391793e-03 
  2.141862539247e-01 
  1.514735907154e-02 
  3.129984853487e-02 
  4.444879071017e-01 
  4.597232573682e-01 
  4.749586076348e-01 
  4.189232004660e-01 
  4.341585507326e-01 
  3.933584938304e-01 
  4.737804936638e-01 
  4.598518258183e-01 
  4.459231579729e-01 
  4.638900351859e-01 
  4.499613673404e-01 
  4.539995767079e-01 
  3.382815106607e-01 
  3.669270346387e-01 
  3.955725586167e-01 
  3.055340044931e-01 
  3.341795284711e-01 
  2.727864983256e-01 
  3.925639212442e-01 
  3.664290915892e-01 
  3.402942619342e-01 
  4.180621438725e-01 
  3.919273142175e-01 
  4.435603665009e-01 
  2.755718600332e-01 
  3.370061645872e-01 
  3.984404691412e-01 
  3.209790553124e-01 
  3.824133598664e-01 
  3.663862505916e-01 
  3.416644091634e-01 
  3.053538795411e-01 
  2.690433499187e-01 
  2.769569270663e-01 
  2.406463974440e-01 
  2.122494449692e-01 
  4.736698577413e-01 
  4.755362846786e-01 
  4.774027116158e-01 
  4.337245471608e-01 
  4.355909740980e-01 
  3.937792365802e-01 
  4.432996810025e-01 
  3.928142635565e-01 
  3.423288461106e-01 
  4.032657555141e-01 
  3.527803380681e-01 
  3.632318300256e-01 
  4.840325371777e-01 
  4.632069571635e-01 
  4.423813771494e-01 
  4.236386837320e-01 
  4.028131037178e-01 
  3.632448302863e-01 
  2.802310864212e-01 
  3.191668085432e-01 
  3.581025306652e-01 
  1.429035266331e-01 
  1.818392487551e-01 
  5.575966845052e-03 
  4.475271320536e-01 
  4.316939154022e-01 
  4.158606987508e-01 
  4.834793550336e-01 
  4.676461383822e-01 
  5.194315780136e-01 
  5.200327704155e-02 
  1.467087664207e-01 
  2.414142557998e-01 
  8.798518617400e-02 
  1.826906755531e-01 
  1.239670953065e-01 
  5.437932855779e-02 
  2.434413063534e-02 
 -5.691067287109e-03 
  1.083539959223e-01 
  7.831879799981e-02 
  1.623286632867e-01 
  4.957952619484e-02 
  2.223900571784e-02 
 -5.101514759155e-03 
  2.325521737262e-02 
 -4.085303104379e-03 
 -3.069091449602e-03 
  1.657141380347e-01 
  8.321205098130e-02 
  7.099639279340e-04 
  2.149346778402e-01 
  1.324325907868e-01 
  2.641552176457e-01 
  4.052464576176e-01 
  3.337377846882e-01 
  2.622291117588e-01 
  2.003871444139e-01 
  1.288784714846e-01 
 -4.472168789683e-03 
  4.183093610966e-01 
  4.736717383042e-01 
  5.290341155117e-01 
  4.213411676109e-01 
  4.767035448184e-01 
  4.243729741251e-01 
  4.110262220148e-01 
  4.199208112172e-01 
  4.288154004196e-01 
  3.398681223882e-01 
  3.487627115906e-01 
  2.687100227616e-01 
  2.525189349261e-03 
  8.353730825234e-02 
  1.645494271554e-01 
 -3.293161520381e-04 
  8.068280275104e-02 
 -3.183821653337e-03 
  3.179584397554e-01 
  2.414497811562e-01 
  1.649411225571e-01 
  2.942231914633e-01 
  2.177145328642e-01 
  2.704879431713e-01 
 -1.497814245961e-03 
  4.150482686336e-03 
  9.798779618634e-03 
  2.035780044435e-01 
  2.092263013758e-01 
  4.086538231329e-01 
  4.518327620863e-01 
  2.311501497418e-01 
  1.046753739733e-02 
  4.503770854886e-01 
  2.296944731441e-01 
  4.489214088908e-01 
  2.752684160709e-01 
  1.990499096101e-01 
  1.228314031493e-01 
  3.925734892775e-01 
  3.163549828167e-01 
  5.098785624842e-01 
  2.140414651886e-01 
  1.086135201490e-01 
  3.185575109498e-03 
  1.910535987341e-01 
  8.562565369452e-02 
  1.680657322795e-01 
  5.875208853834e-01 
  2.960209562192e-01 
  4.521027055119e-03 
  3.013638208255e-01 
  9.863891661406e-03 
  1.520675626769e-02 
  5.696604394443e-01 
  2.845264581879e-01 
 -6.075230684857e-04 
  2.921705597141e-01 
  7.036578457717e-03 
  1.468067998392e-02 
  3.971467303581e-01 
  2.026169705255e-01 
  8.087210692846e-03 
  3.661574286759e-01 
  1.716276688433e-01 
  3.351681269938e-01 
  4.027386449912e-01 
  2.032807873329e-01 
  3.822929674576e-03 
  4.783299795910e-01 
  2.788721219327e-01 
  5.539213141908e-01 
  4.538748820875e-01 
  4.291261501661e-01 
  4.043774182448e-01 
  4.238187587042e-01 
  3.990700267828e-01 
  3.937626353209e-01 
  6.269318650896e-01 
  3.166754320534e-01 
  6.418999017330e-03 
  3.140603912913e-01 
  3.803958255149e-03 
  1.188917492968e-03 
  5.250982426077e-01 
  5.419331240083e-01 
  5.587680054088e-01 
  5.736995954016e-01 
  5.905344768021e-01 
  6.223009481954e-01 
  5.511486450584e-01 
  5.412181415582e-01 
  5.312876380580e-01 
  4.810092028042e-01 
  4.710786993040e-01 
  4.108697605500e-01 
  4.980378177951e-01 
  4.305224457915e-01 
  3.630070737878e-01 
  4.883727525050e-01 
  4.208573805013e-01 
  4.787076872148e-01 
  3.670497462540e-01 
  3.821397568777e-01 
  3.972297675014e-01 
  4.222458160940e-01 
  4.373358267178e-01 
  4.774418859341e-01 
  4.860780481972e-01 
  4.802522121320e-01 
  4.744263760668e-01 
  5.538714970582e-01 
  5.480456609931e-01 
  6.216649459193e-01 
  6.221225887210e-01 
  6.587348925827e-01 
  6.953471964445e-01 
  5.531749960908e-01 
  5.897872999526e-01 
  4.842274034607e-01 
  6.224748526607e-01 
  5.946434569805e-01 
  5.668120613003e-01 
  6.239491908720e-01 
  5.961177951919e-01 
  6.254235290834e-01 
  5.210087929131e-01 
  5.691615231327e-01 
  6.173142533523e-01 
  4.981041848293e-01 
  5.462569150489e-01 
  4.751995767456e-01 
  6.211843719611e-01 
  6.048749756298e-01 
  5.885655792986e-01 
  6.626748478035e-01 
  6.463654514723e-01 
  7.041653236459e-01 
  6.245535840618e-01 
  6.032822502577e-01 
  5.820109164535e-01 
  3.239421024043e-01 
  3.026707686002e-01 
  2.333062074685e-02 
  5.141078764958e-01 
  6.068756097763e-01 
  6.996433430569e-01 
  6.216588514586e-01 
  7.144265847392e-01 
  7.292098264215e-01 
  6.993595539335e-01 
  6.044279434978e-01 
  5.094963330621e-01 
  5.899585373299e-01 
  4.950269268943e-01 
  4.805575207264e-01 
  4.246083322985e-01 
  4.630849524173e-01 
  5.015615725362e-01 
  4.889285777663e-01 
  5.274051978852e-01 
  5.532488232341e-01 
  5.002575255292e-01 
  4.620621077877e-01 
  4.238666900463e-01 
  4.295013380069e-01 
  3.913059202655e-01 
  3.587451504847e-01 
  7.140373694097e-01 
  7.096154402133e-01 
  7.051935110168e-01 
  6.490308318859e-01 
  6.446089026895e-01 
  5.840242943622e-01 
  6.235778803424e-01 
  6.589283422269e-01 
  6.942788041114e-01 
  6.224474408749e-01 
  6.577979027594e-01 
  6.213170014075e-01 
  1.064732566283e-02 
  2.993395199294e-01 
  5.880317141961e-01 
  3.164774281650e-01 
  6.051696224316e-01 
  6.223075306672e-01 