# vtk DataFile Version 2
NuDG++ 2D simulation
ASCII
DATASET UNSTRUCTURED_GRID

POINTS 2244 double
 -1.656250060000e-01  -2.000000030000e-01  0.0
 -1.828125045000e-01  -1.772221997500e-01  0.0
 -2.000000030000e-01  -1.544443965000e-01  0.0
 -1.828125045000e-01  -2.000000030000e-01  0.0
 -2.000000030000e-01  -1.772221997500e-01  0.0
 -2.000000030000e-01  -2.000000030000e-01  0.0
 -6.428571790000e-02  -1.700000018000e-01  0.0
 -8.058035746000e-02  -1.850000024000e-01  0.0
 -9.687499702000e-02  -2.000000030000e-01  0.0
 -6.339285895000e-02  -1.850000024000e-01  0.0
 -7.968749851000e-02  -2.000000030000e-01  0.0
 -6.250000000000e-02  -2.000000030000e-01  0.0
 -2.000000030000e-01  -1.544443965000e-01  0.0
 -1.750000045000e-01  -1.379364989500e-01  0.0
 -1.500000060000e-01  -1.214286014000e-01  0.0
 -2.000000030000e-01  -1.316666491500e-01  0.0
 -1.750000045000e-01  -1.151587516000e-01  0.0
 -2.000000030000e-01  -1.088889018000e-01  0.0
 -1.500000060000e-01  -1.214286014000e-01  0.0
 -1.750000045000e-01  -1.379364989500e-01  0.0
 -2.000000030000e-01  -1.544443965000e-01  0.0
 -1.500000060000e-01  -1.457143016000e-01  0.0
 -1.750000045000e-01  -1.622221991500e-01  0.0
 -1.500000060000e-01  -1.700000018000e-01  0.0
 -1.500000060000e-01  -7.285714149000e-02  0.0
 -1.750000045000e-01  -9.087302164500e-02  0.0
 -2.000000030000e-01  -1.088889018000e-01  0.0
 -1.500000060000e-01  -9.714287144500e-02  0.0
 -1.750000045000e-01  -1.151587516000e-01  0.0
 -1.500000060000e-01  -1.214286014000e-01  0.0
  1.832975030000e+00  -4.625000060000e-02  0.0
  1.853987515000e+00  -1.231250018000e-01  0.0
  1.875000000000e+00  -2.000000030000e-01  0.0
  1.916487515000e+00  -7.187499851000e-02  0.0
  1.937500000000e+00  -1.487499997100e-01  0.0
  2.000000000000e+00  -9.749999642000e-02  0.0
 -1.500000060000e-01  -1.700000018000e-01  0.0
 -1.360000037000e-01  -1.525000036000e-01  0.0
 -1.220000014000e-01  -1.350000054000e-01  0.0
 -1.500000060000e-01  -1.457143016000e-01  0.0
 -1.360000037000e-01  -1.282143034000e-01  0.0
 -1.500000060000e-01  -1.214286014000e-01  0.0
  2.849999964000e-01  -2.333333530000e-02  0.0
  2.837499976000e-01  -8.166666795000e-02  0.0
  2.824999988000e-01  -1.400000006000e-01  0.0
  3.174999952000e-01  -4.666666780000e-02  0.0
  3.162499964000e-01  -1.050000004500e-01  0.0
  3.499999940000e-01  -7.000000030000e-02  0.0
 -1.071429029000e-01  -1.700000018000e-01  0.0
 -8.571431040000e-02  -1.700000018000e-01  0.0
 -6.428571790000e-02  -1.700000018000e-01  0.0
 -9.857145324000e-02  -1.525000036000e-01  0.0
 -7.714286074000e-02  -1.525000036000e-01  0.0
 -9.000000358000e-02  -1.350000054000e-01  0.0
 -1.312499940000e-01  -2.000000030000e-01  0.0
 -1.191964484500e-01  -1.850000024000e-01  0.0
 -1.071429029000e-01  -1.700000018000e-01  0.0
 -1.406250000000e-01  -1.850000024000e-01  0.0
 -1.285714544500e-01  -1.700000018000e-01  0.0
 -1.500000060000e-01  -1.700000018000e-01  0.0
 -1.220000014000e-01  -1.350000054000e-01  0.0
 -1.060000024900e-01  -1.350000054000e-01  0.0
 -9.000000358000e-02  -1.350000054000e-01  0.0
 -1.185000017500e-01  -1.175000034500e-01  0.0
 -1.025000028400e-01  -1.175000034500e-01  0.0
 -1.150000021000e-01  -1.000000015000e-01  0.0
 -9.000000358000e-02  -1.350000054000e-01  0.0
 -1.060000024900e-01  -1.350000054000e-01  0.0
 -1.220000014000e-01  -1.350000054000e-01  0.0
 -9.857145324000e-02  -1.525000036000e-01  0.0
 -1.145714521500e-01  -1.525000036000e-01  0.0
 -1.071429029000e-01  -1.700000018000e-01  0.0
 -7.778175920000e-02  -9.192386270000e-02  0.0
 -9.639088065000e-02  -9.596193210000e-02  0.0
 -1.150000021000e-01  -1.000000015000e-01  0.0
 -8.389088139000e-02  -1.134619340500e-01  0.0
 -1.025000028400e-01  -1.175000034500e-01  0.0
 -9.000000358000e-02  -1.350000054000e-01  0.0
 -1.220000014000e-01  -1.350000054000e-01  0.0
 -1.185000017500e-01  -1.175000034500e-01  0.0
 -1.150000021000e-01  -1.000000015000e-01  0.0
 -1.360000037000e-01  -1.282143034000e-01  0.0
 -1.325000040500e-01  -1.107143014500e-01  0.0
 -1.500000060000e-01  -1.214286014000e-01  0.0
 -7.778175920000e-02  -9.192386270000e-02  0.0
 -8.389088139000e-02  -1.134619340500e-01  0.0
 -9.000000358000e-02  -1.350000054000e-01  0.0
 -6.639088876500e-02  -1.022535823500e-01  0.0
 -7.250001095500e-02  -1.237916537000e-01  0.0
 -5.500001833000e-02  -1.125833020000e-01  0.0
 -1.071429029000e-01  -1.700000018000e-01  0.0
 -1.145714521500e-01  -1.525000036000e-01  0.0
 -1.220000014000e-01  -1.350000054000e-01  0.0
 -1.285714544500e-01  -1.700000018000e-01  0.0
 -1.360000037000e-01  -1.525000036000e-01  0.0
 -1.500000060000e-01  -1.700000018000e-01  0.0
  6.250000093000e-03  -2.000000030000e-01  0.0
  4.062500153650e-02  -2.000000030000e-01  0.0
  7.500000298000e-02  -2.000000030000e-01  0.0
  1.383928512150e-02  -1.850000024000e-01  0.0
  4.821428656500e-02  -1.850000024000e-01  0.0
  2.142857015000e-02  -1.700000018000e-01  0.0
 -1.500000060000e-01  -7.285714149000e-02  0.0
 -1.500000060000e-01  -9.714287144500e-02  0.0
 -1.500000060000e-01  -1.214286014000e-01  0.0
 -1.325000040500e-01  -8.642857149500e-02  0.0
 -1.325000040500e-01  -1.107143014500e-01  0.0
 -1.150000021000e-01  -1.000000015000e-01  0.0
 -2.000000030000e-01  -6.333333254000e-02  0.0
 -1.750000045000e-01  -6.809523701500e-02  0.0
 -1.500000060000e-01  -7.285714149000e-02  0.0
 -1.750000045000e-01  -4.380952660000e-02  0.0
 -1.500000060000e-01  -4.857143107500e-02  0.0
 -1.500000060000e-01  -2.428572066000e-02  0.0
 -2.000000030000e-01  -6.333333254000e-02  0.0
 -2.000000030000e-01  -8.611111717000e-02  0.0
 -2.000000030000e-01  -1.088889018000e-01  0.0
 -1.750000045000e-01  -6.809523701500e-02  0.0
 -1.750000045000e-01  -9.087302164500e-02  0.0
 -1.500000060000e-01  -7.285714149000e-02  0.0
 -2.000000030000e-01  -6.333333254000e-02  0.0
 -1.750000045000e-01  -4.380952660000e-02  0.0
 -1.500000060000e-01  -2.428572066000e-02  0.0
 -2.000000030000e-01  -4.055555630500e-02  0.0
 -1.750000045000e-01  -2.103175036500e-02  0.0
 -2.000000030000e-01  -1.777778007000e-02  0.0
 -1.500000060000e-01  -2.428572066000e-02  0.0
 -1.500000060000e-01  -4.857143107500e-02  0.0
 -1.500000060000e-01  -7.285714149000e-02  0.0
 -1.281259023000e-01  -2.896608505500e-02  0.0
 -1.281259023000e-01  -5.325179547000e-02  0.0
 -1.062517986000e-01  -3.364644945000e-02  0.0
 -1.099999994000e-01   1.996667010000e-08  0.0
 -1.300000027000e-01  -1.214285034666e-02  0.0
 -1.500000060000e-01  -2.428572066000e-02  0.0
 -1.081258990000e-01  -1.682321474166e-02  0.0
 -1.281259023000e-01  -2.896608505500e-02  0.0
 -1.062517986000e-01  -3.364644945000e-02  0.0
 -1.500000060000e-01  -2.428572066000e-02  0.0
 -1.500000060000e-01   0.000000000000e+00  0.0
 -1.500000060000e-01   2.428572066000e-02  0.0
 -1.750000045000e-01  -2.103175036500e-02  0.0
 -1.750000045000e-01   3.253970295000e-03  0.0
 -2.000000030000e-01  -1.777778007000e-02  0.0
 -1.500000060000e-01  -7.285714149000e-02  0.0
 -1.226314045700e-01  -6.892856210000e-02  0.0
 -9.526280314000e-02  -6.499998271000e-02  0.0
 -1.281259023000e-01  -5.325179547000e-02  0.0
 -1.007573008700e-01  -4.932321608000e-02  0.0
 -1.062517986000e-01  -3.364644945000e-02  0.0
  3.499999940000e-01   1.400000006000e-01  0.0
  4.021931737500e-01   1.224999986500e-01  0.0
  4.543863535000e-01   1.049999967000e-01  0.0
  4.187500029500e-01   1.749999970000e-01  0.0
  4.709431827000e-01   1.574999950500e-01  0.0
  4.875000119000e-01   2.099999934000e-01  0.0
 -7.101409137000e-02  -4.349999130000e-02  0.0
 -8.313844725500e-02  -5.424998700500e-02  0.0
 -9.526280314000e-02  -6.499998271000e-02  0.0
 -6.449843011500e-02  -5.250913650000e-02  0.0
 -7.662278600000e-02  -6.325913220500e-02  0.0
 -5.798276886000e-02  -6.151828170000e-02  0.0
 -9.526280314000e-02  -6.499998271000e-02  0.0
 -1.226314045700e-01  -6.892856210000e-02  0.0
 -1.500000060000e-01  -7.285714149000e-02  0.0
 -1.051314026200e-01  -8.249999210500e-02  0.0
 -1.325000040500e-01  -8.642857149500e-02  0.0
 -1.150000021000e-01  -1.000000015000e-01  0.0
 -6.181925908000e-02  -1.656441018000e-02  0.0
 -7.051259093000e-02  -1.954082492500e-02  0.0
 -7.920592278000e-02  -2.251723967000e-02  0.0
 -5.862244405000e-02  -2.428220026000e-02  0.0
 -6.731577590000e-02  -2.725861500500e-02  0.0
 -5.542562902000e-02  -3.199999034000e-02  0.0
 -7.920592278000e-02  -2.251723967000e-02  0.0
 -9.272886069000e-02  -2.808184456000e-02  0.0
 -1.062517986000e-01  -3.364644945000e-02  0.0
 -7.511000707500e-02  -3.300861548500e-02  0.0
 -8.863294498500e-02  -3.857322037500e-02  0.0
 -7.101409137000e-02  -4.349999130000e-02  0.0
 -7.101409137000e-02  -4.349999130000e-02  0.0
 -6.321986019500e-02  -3.774999082000e-02  0.0
 -5.542562902000e-02  -3.199999034000e-02  0.0
 -7.511000707500e-02  -3.300861548500e-02  0.0
 -6.731577590000e-02  -2.725861500500e-02  0.0
 -7.920592278000e-02  -2.251723967000e-02  0.0
 -7.920592278000e-02  -2.251723967000e-02  0.0
 -9.460296109000e-02  -1.125860985166e-02  0.0
 -1.099999994000e-01   1.996667010000e-08  0.0
 -9.272886069000e-02  -2.808184456000e-02  0.0
 -1.081258990000e-01  -1.682321474166e-02  0.0
 -1.062517986000e-01  -3.364644945000e-02  0.0
 -7.778175920000e-02  -9.192386270000e-02  0.0
 -6.788226403000e-02  -7.672107220000e-02  0.0
 -5.798276886000e-02  -6.151828170000e-02  0.0
 -8.652228117000e-02  -7.846192270500e-02  0.0
 -7.662278600000e-02  -6.325913220500e-02  0.0
 -9.526280314000e-02  -6.499998271000e-02  0.0
 -7.101409137000e-02  -4.349999130000e-02  0.0
 -8.863294498500e-02  -3.857322037500e-02  0.0
 -1.062517986000e-01  -3.364644945000e-02  0.0
 -8.313844725500e-02  -5.424998700500e-02  0.0
 -1.007573008700e-01  -4.932321608000e-02  0.0
 -9.526280314000e-02  -6.499998271000e-02  0.0
 -7.778175920000e-02  -9.192386270000e-02  0.0
 -8.652228117000e-02  -7.846192270500e-02  0.0
 -9.526280314000e-02  -6.499998271000e-02  0.0
 -9.639088065000e-02  -9.596193210000e-02  0.0
 -1.051314026200e-01  -8.249999210500e-02  0.0
 -1.150000021000e-01  -1.000000015000e-01  0.0
[...]
POINT_DATA 2244
SCALARS field1 double 1
LOOKUP_TABLE default
  2.252490031628e-03 
  6.639322364971e-02 
  1.305339572678e-01 
  1.244580668236e-03 
  6.538531428632e-02 
  2.366713048440e-04 
  2.436419123605e-01 
  1.219840418634e-01 
  3.261713663330e-04 
  1.227119545449e-01 
  1.054084047823e-03 
  1.781996729313e-03 
  1.287453451677e-01 
  1.666215623785e-01 
  2.044977795894e-01 
  1.776028506709e-01 
  2.154790678817e-01 
  2.264603561740e-01 
  2.061122296929e-01 
  1.669697483697e-01 
  1.278272670464e-01 
  1.611478808744e-01 
  1.220053995511e-01 
  1.161835320558e-01 
  2.789733405067e-01 
  2.527978504014e-01 
  2.266223602961e-01 
  2.433532751098e-01 
  2.171777850045e-01 
  2.077332097128e-01 
  2.659091910288e-01 
  1.458496108802e-01 
  2.579003073161e-02 
  2.569056042422e-01 
  1.368460240936e-01 
  2.479020174555e-01 
  1.169814319414e-01 
  1.619075904119e-01 
  2.068337488823e-01 
  1.621634596524e-01 
  2.070896181229e-01 
  2.073454873634e-01 
  2.491448985969e-01 
  2.603984987607e-01 
  2.716520989246e-01 
  2.564857231548e-01 
  2.677393233187e-01 
  2.638265477128e-01 
  1.813294927256e-01 
  2.111803330653e-01 
  2.410311734051e-01 
  2.082005963570e-01 
  2.380514366967e-01 
  2.350716999883e-01 
  1.250742339847e-03 
  9.107916596171e-02 
  1.809075895836e-01 
  5.753770843306e-02 
  1.473661320549e-01 
  1.138246745263e-01 
  2.035161571958e-01 
  2.170584030834e-01 
  2.306006489709e-01 
  2.279929548158e-01 
  2.415352007034e-01 
  2.524697524358e-01 
  2.324809262964e-01 
  2.180385551943e-01 
  2.035961840922e-01 
  2.069984085701e-01 
  1.925560374679e-01 
  1.815158908437e-01 
  2.820796420789e-01 
  2.668706706891e-01 
  2.516616992992e-01 
  2.574435234638e-01 
  2.422345520740e-01 
  2.328074048487e-01 
  2.043605347530e-01 
  2.294632872252e-01 
  2.545660396975e-01 
  2.069346845207e-01 
  2.320374369930e-01 
  2.095088342885e-01 
  2.822723564420e-01 
  2.581888500160e-01 
  2.341053435900e-01 
  2.939010250895e-01 
  2.698175186635e-01 
  3.055296937370e-01 
  1.796312858843e-01 
  1.929865636542e-01 
  2.063418414242e-01 
  1.477770789803e-01 
  1.611323567502e-01 
  1.159228720763e-01 
  1.647886206184e-03 
  2.457806369475e-03 
  3.267726532767e-03 
  1.507299535346e-01 
  1.515398736979e-01 
  2.998120208631e-01 
  2.786358897140e-01 
  2.439731072863e-01 
  2.093103248587e-01 
  2.670923623266e-01 
  2.324295798990e-01 
  2.555488349393e-01 
  2.933037712948e-01 
  2.848019216540e-01 
  2.763000720132e-01 
  2.996668996248e-01 
  2.911650499841e-01 
  3.060300279549e-01 
  2.925425920646e-01 
  2.601682892522e-01 
  2.277939864398e-01 
  2.849657776247e-01 
  2.525914748123e-01 
  2.773889631847e-01 
  2.942301356150e-01 
  3.003307309077e-01 
  3.064313262004e-01 
  3.103236720014e-01 
  3.164242672941e-01 
  3.264172083879e-01 
  3.060042128109e-01 
  2.923344940791e-01 
  2.786647753472e-01 
  2.789084353261e-01 
  2.652387165943e-01 
  2.518126578413e-01 
  2.306808638687e-01 
  2.684859111038e-01 
  3.062909583389e-01 
  2.401202908135e-01 
  2.779253380486e-01 
  2.495597177584e-01 
  3.027327677725e-01 
  3.046364168667e-01 
  3.065400659609e-01 
  3.149423279767e-01 
  3.168459770709e-01 
  3.271518881809e-01 
  2.780767425297e-01 
  2.672645969468e-01 
  2.564524513639e-01 
  2.644145285483e-01 
  2.536023829654e-01 
  2.507523145669e-01 
  2.702322416555e-01 
  2.906739106040e-01 
  3.111155795525e-01 
  1.571013355761e-01 
  1.775430045246e-01 
  4.397042949675e-02 
  2.174057399981e-01 
  2.392540667114e-01 
  2.611023934248e-01 
  2.484774029389e-01 
  2.703257296523e-01 
  2.795490658797e-01 
  2.575290436294e-01 
  2.678555318496e-01 
  2.781820200697e-01 
  2.566805499566e-01 
  2.670070381767e-01 
  2.558320562837e-01 
  7.799781801093e-02 
  1.239798641410e-01 
  1.699619102710e-01 
  1.014189308421e-01 
  1.474009769722e-01 
  1.248400436733e-01 
  1.656843780020e-01 
  2.070565383678e-01 
  2.484286987336e-01 
  1.914837265288e-01 
  2.328558868946e-01 
  2.172830750555e-01 
  2.169375298150e-01 
  1.720516048637e-01 
  1.271656799123e-01 
  1.924548322706e-01 
  1.475689073193e-01 
  1.679721347262e-01 
  1.645472443833e-01 
  1.962368564245e-01 
  2.279264684656e-01 
  2.068110110033e-01 
  2.385006230444e-01 
  2.490747776233e-01 
  2.830543864070e-01 
  2.823089244006e-01 
  2.815634623942e-01 
  2.715437258350e-01 
  2.707982638286e-01 
  2.600330652630e-01 
  2.187178491393e-01 
  2.337822430758e-01 
  2.488466370124e-01 
  2.399650684274e-01 
  2.550294623639e-01 
  2.612122877154e-01 
  2.802267917423e-01 
  2.693952356180e-01 
  2.585636794937e-01 
  2.667375871371e-01 
  2.559060310128e-01 
  2.532483825319e-01 
  1.683161015946e-01 
  1.236344611596e-01 
  7.895282072454e-02 
  1.567410347642e-01 
  1.120593943292e-01 
  1.451659679339e-01 
  3.038371397874e-01 
  2.696268533842e-01 
  2.354165669811e-01 
  2.728146811081e-01 
  2.386043947050e-01 
  2.417922224288e-01 
  2.486293856657e-01 
  2.540081285092e-01 
  2.593868713527e-01 
  2.418476792696e-01 
  2.472264221131e-01 
  2.350659728735e-01 
  3.220932127591e-01 
  3.028389456078e-01 
  2.835846784565e-01 
  3.335985142237e-01 
  3.143442470724e-01 
  3.451038156883e-01 
  3.191318796165e-01 
  3.105226126200e-01 
  3.019133456234e-01 
  2.806825015724e-01 
  2.720732345759e-01 
  2.422331235283e-01 
  2.819575766199e-01 
  3.083548775185e-01 
  3.347521784172e-01 
  2.815495467599e-01 
  3.079468476585e-01 
  2.811415168999e-01 
  3.359806720394e-01 
  3.089557781084e-01 
  2.819308841775e-01 
  3.211004932632e-01 
  2.940755993323e-01 
  3.062203144871e-01 
  3.863539244016e-01 
  3.621923272588e-01 
  3.380307301161e-01 
  3.449073881250e-01 
  3.207457909822e-01 
  3.034608518484e-01 
  2.869708385534e-01 
  2.837002583055e-01 
  2.804296780576e-01 
  3.130409476011e-01 
  3.097703673532e-01 
  3.391110566489e-01 
  3.015802782516e-01 
  3.115543079237e-01 
  3.215283375958e-01 
  3.444730682529e-01 
  3.544470979250e-01 
  3.873658582543e-01 
  3.213052407825e-01 
  2.820928962547e-01 
  2.428805517270e-01 
  3.020391563969e-01 
  2.628268118691e-01 
  2.827730720113e-01 
  4.127199012723e-01 
  4.009205001924e-01 
  3.891210991124e-01 
  3.679862282612e-01 
  3.561868271812e-01 
  3.232525552500e-01 
  1.421716181757e-03 
  1.547603658695e-01 
  3.080990155572e-01 
  5.197592195417e-05 
  1.533906256097e-01 
 -1.317764337848e-03 
  3.945836846376e-01 
  3.538568144114e-01 
  3.131299441852e-01 
  3.557997683886e-01 
  3.150728981625e-01 
  3.170158521397e-01 
  3.130896014390e-01 
  3.536096058972e-01 
  3.941296103554e-01 
  3.610624926203e-01 
  4.015824970785e-01 
  4.090353838015e-01 
  3.158997995435e-01 
  3.140869708692e-01 
  3.122741421948e-01 
  1.608402488807e-01 
  1.590274202064e-01 
  5.780698217954e-03 
  3.894330712527e-01 
  3.547907663706e-01 
  3.201484614885e-01 
  3.649918373164e-01 
  3.303495324342e-01 
  3.405506033800e-01 
  3.871931144998e-01 
  3.475151235101e-01 
  3.078371325204e-01 
  3.984183314981e-01 
  3.587403405084e-01 
  4.096435484964e-01 
  4.113781614433e-01 
  3.677717477745e-01 
  3.241653341057e-01 
  3.766029920294e-01 
  3.329965783606e-01 
  3.418278226155e-01 
  2.836111477533e-01 
  2.882885963531e-01 
  2.929660449528e-01 
  3.144991399370e-01 
  3.191765885368e-01 
  3.453871321207e-01 
  2.853478224381e-01 
  3.139923783200e-01 
  3.426369342019e-01 
  3.019616130173e-01 
  3.306061688992e-01 
  3.185754035964e-01 
 -1.395734032010e-03 
  6.414718557352e-02 
  1.296901051791e-01 
  2.507455167159e-03 
  6.805037477269e-02 
  6.410644366328e-03 
  1.280922268368e-01 
  1.713630899399e-01 
  2.146339530429e-01 
  1.717494927564e-01 
  2.150203558594e-01 
  2.154067586759e-01 
  2.438724875049e-01 
  1.253060514675e-01 
  6.739615430059e-03 
  1.214164700572e-01 
  2.850034019831e-03 
 -1.039547390397e-03 
 -4.368792367013e-03 
  1.142356354603e-02 
  2.721591945907e-02 
  3.609199030923e-02 
  5.188434622227e-02 
  7.655277298547e-02 
  1.329776746090e-03 
 -2.015289782287e-03 
 -5.360356310665e-03 
  6.159780585987e-02 
  5.825273933149e-02 
  1.218658349736e-01 
  2.015865927250e-01 
  1.014078454335e-01 
  1.229098141918e-03 
  1.682971087078e-01 
  6.811836141621e-02 
  1.350076246905e-01 
  1.289032194251e-01 
  1.744403027567e-01 
  2.199773860882e-01 
  6.876212429406e-02 
  1.142992076256e-01 
  8.621029163007e-03 
 -6.931719774012e-03 
  3.462082146919e-02 
  7.617336271238e-02 
  5.738435520994e-02 
  9.893689645313e-02 
  1.217004301939e-01 
  2.439279268420e-03 
  2.720340117564e-03 
  3.001400966707e-03 
  1.605792616799e-01 
  1.608603225291e-01 
  3.187192440914e-01 
  4.446622272133e-03 
  1.595111770592e-01 
  3.145757318464e-01 
  3.270671377786e-03 
  1.583352261649e-01 
  2.094720483440e-03 
  2.988868088222e-01 
  1.530909446506e-01 
  7.295080479041e-03 
  2.788504284472e-01 
  1.330545642757e-01 
  2.588140480723e-01 
  1.879767488791e-03 
  1.151316930473e-01 
  2.283836186059e-01 
  4.693837365032e-03 
  1.179457629236e-01 
  7.507907241274e-03 
  6.926338703523e-03 
  1.461919946515e-01 
  2.854576505995e-01 
  1.614651407363e-01 
  3.007307966843e-01 
  3.160039427691e-01 
  2.847479590802e-01 
  1.465192374687e-01 
  8.290515857077e-03 
  2.890768117740e-01 
  1.508480901625e-01 
  2.934056644678e-01 
  1.849372140620e-01 
  9.280292660118e-02 
  6.686391403640e-04 
  9.424695789308e-02 
  2.112670432261e-03 
  3.556701724158e-03 
  1.184468869398e-02 
  1.185386045152e-01 
  2.252325203365e-01 
  1.481759919519e-01 
  2.548699077731e-01 
  2.845072952098e-01 
  2.193554589365e-01 
  2.503077592319e-01 
  2.812600595273e-01 
  2.525747875628e-01 
  2.835270878582e-01 
  2.857941161891e-01 
  2.469272906955e-01 
  1.274215526986e-01 
  7.915814701648e-03 
  2.633032489435e-01 
  1.437975109466e-01 
  2.796792071916e-01 
  4.095241971632e-01 
  3.753666604023e-01 
  3.412091236414e-01 
  3.783347927010e-01 
  3.441772559401e-01 
  3.471453882388e-01 
  2.163219589517e-01 
  2.152095795976e-01 
  2.140972002435e-01 
  2.488853693855e-01 
  2.477729900314e-01 
  2.814487798192e-01 
  1.233341675615e-03 
  3.465219972296e-03 
  5.697098268977e-03 
  1.258257247385e-01 
  1.280576030352e-01 
  2.504181078014e-01 
  2.413686386089e-02 
  1.107448692708e-02 
 -1.987890006730e-03 
  1.088016044691e-02 
 -2.182216486900e-03 
 -2.376542967069e-03 
  2.963729458882e-01 
  3.011688099842e-01 
  3.059646740802e-01 
  2.756905224736e-01 
  2.804863865696e-01 
  2.550080990590e-01 
  3.078839016140e-01 
  3.168069080596e-01 
  3.257299145052e-01 
  3.177415628135e-01 
  3.266645692591e-01 
  3.275992240131e-01 
  3.242654928743e-01 
  3.090779807581e-01 
  2.938904686419e-01 
  3.086982928043e-01 
  2.935107806881e-01 
  2.931310927344e-01 
  2.935024468591e-01 
  3.086726199448e-01 
  3.238427930304e-01 
  2.993847919202e-01 
  3.145549650059e-01 
  3.052671369813e-01 
  2.925073726893e-01 
  2.940740049068e-01 
  2.956406371243e-01 
  2.603401305329e-01 
  2.619067627505e-01 
  2.281728883766e-01 
  1.326886732720e-02 
 -1.227089997108e-03 
 -1.572304732142e-02 
  1.284075141278e-01 
  1.139115568035e-01 
  2.435461609284e-01 
  3.075088496078e-01 
  2.694366568784e-01 
  2.313644641491e-01 
  2.798341524782e-01 
  2.417619597489e-01 
  2.521594553486e-01 
  3.066825080815e-01 
  3.055181675880e-01 
  3.043538270945e-01 
  2.698421453352e-01 
  2.686778048417e-01 
  2.330017825890e-01 
  1.628577115189e-01 
  2.070758665981e-01 
  2.512940216773e-01 
  1.960221671940e-01 
  2.402403222732e-01 
  2.291866228692e-01 
  2.286353705403e-01 
  1.965299172835e-01 
  1.644244640267e-01 
  1.830772611743e-01 
  1.509718079175e-01 
  1.375191518084e-01 
  2.501068736886e-01 
  2.375555844542e-01 
  2.250042952197e-01 
  2.547133074814e-01 
  2.421620182470e-01 
  2.593197412742e-01 
  2.247018667099e-01 
  2.369898168998e-01 
  2.492777670897e-01 
  1.943350162206e-01 
  2.066229664105e-01 
  1.639681657312e-01 
  2.807001198872e-01 
  2.692279919388e-01 
  2.577558639903e-01 
  2.859400716601e-01 
  2.744679437116e-01 
  2.911800234330e-01 
  2.534534860106e-01 
  2.553395992411e-01 
  2.572257124716e-01 
  2.752002777210e-01 
  2.770863909514e-01 
  2.969470694313e-01 
  1.650681338061e-01 
  1.547165955895e-01 
  1.443650573729e-01 
  1.215208234023e-01 
  1.111692851857e-01 
  7.797351299852e-02 
  1.630707954269e-01 
  1.958293141264e-01 
  2.285878328259e-01 
  1.539734195976e-01 
  1.867319382972e-01 
  1.448760437684e-01 
  2.276160609307e-01 
  1.963207124191e-01 
  1.650253639076e-01 
  1.865549208347e-01 
  1.552595723232e-01 
  1.454937807388e-01 
  2.964770401547e-01 
  2.775228056755e-01 
  2.585685711963e-01 
  2.825049888804e-01 
  2.635507544012e-01 
  2.685329376061e-01 
  2.266982453021e-01 
  2.215397506005e-01 
  2.163812558989e-01 
  1.779399869455e-01 
  1.727814922439e-01 
  1.291817285889e-01 
  2.272724524421e-01 
  2.620559269985e-01 
  2.968394015549e-01 
  2.232239352142e-01 
  2.580074097706e-01 
  2.191754179864e-01 
  1.284086332313e-01 
  1.336415606804e-01 
  1.388744881295e-01 
  6.446571149710e-02 
  6.969863894619e-02 
  5.227897629389e-04 
  1.401886036603e-01 
  1.342505621723e-01 
  1.283125206843e-01 
  1.789812215986e-01 
  1.730431801106e-01 
  2.177738395369e-01 
  2.135580596002e-01 
  1.104922010747e-01 
  7.426342549319e-03 
  1.062656828201e-01 
  3.199824294712e-03 
 -1.026693959895e-03 
  2.005780609202e-02 
  1.159527607279e-02 
  3.132746053558e-03 
  1.534370613841e-01 
  1.449745313649e-01 
  2.868163166762e-01 
  2.198070506233e-01 
  2.160852792489e-01 
  2.123635078745e-01 
  1.797474657623e-01 
  1.760256943879e-01 
  1.396878809014e-01 
  2.572772506511e-01 
  1.272109164898e-01 
 -2.855417671438e-03 
  1.396120791514e-01 
  9.545744990150e-03 
  2.194690765174e-02 
  2.647519223021e-01 
  2.714951882006e-01 
  2.782384540991e-01 
  2.548312694237e-01 
  2.615745353222e-01 
  2.449106165453e-01 
  2.773742032172e-01 
  2.720108736584e-01 
  2.666475440996e-01 
  2.683264748739e-01 
  2.629631453151e-01 
  2.592787465306e-01 
  2.073426295247e-01 
  2.275974121079e-01 
  2.478521946911e-01 
  2.058094382204e-01 
  2.260642208036e-01 
  2.042762469161e-01 
  2.434844489026e-01 
  2.267079348732e-01 
  2.099314208439e-01 
  2.544349935108e-01 
  2.376584794815e-01 
  2.653855381191e-01 
  2.083472190809e-01 
  2.290554411908e-01 
  2.497636633007e-01 
  2.376509644023e-01 
  2.583591865122e-01 
  2.669547097238e-01 
  2.108529554922e-01 
  2.051331315291e-01 
  1.994133075660e-01 
  1.741323462356e-01 
  1.684125222724e-01 
  1.374117369789e-01 
  2.778440892908e-01 
  2.894059783365e-01 
  3.009678673823e-01 
  2.622134741424e-01 
  2.737753631881e-01 
  2.465828589939e-01 
  2.677220380391e-01 
  2.395288562116e-01 
  2.113356743840e-01 
  2.445514596208e-01 
  2.163582777933e-01 
  2.213808812025e-01 
  2.962163594645e-01 
  2.822440616067e-01 
  2.682717637490e-01 
  2.584636796872e-01 
  2.444913818295e-01 
  2.207109999099e-01 
  2.131068813839e-01 
  2.379275345650e-01 
  2.627481877460e-01 
  1.115755132892e-01 
  1.363961664702e-01 
  1.004414519437e-02 
  2.571798866264e-01 
  2.418571188549e-01 
  2.265343510833e-01 
  2.737119557185e-01 
  2.583891879470e-01 
  2.902440248107e-01 
  5.508661724096e-02 
  1.568125355950e-01 
  2.585384539490e-01 
  1.243789353574e-01 
  2.261048537115e-01 
  1.936712534739e-01 
  2.619318391394e-02 
  1.214394988486e-02 
 -1.905284144211e-03 
  5.193100058021e-02 
  3.788176655114e-02 
  7.766881724649e-02 
  2.386308312355e-02 
  1.055659671407e-02 
 -2.749889695412e-03 
  1.144331764523e-02 
 -1.863168764252e-03 
 -9.764478330911e-04 
  7.868226411463e-02 
  3.971614608813e-02 
  7.500280616336e-04 
  1.058075229348e-01 
  6.684140490827e-02 
  1.329327817549e-01 
  2.009344657252e-01 
  1.672284898731e-01 
  1.335225140210e-01 
  9.948046106036e-02 
  6.577448520824e-02 
 -1.973543604479e-03 
  2.064625685747e-01 
  2.498830781205e-01 
  2.933035876664e-01 
  2.179642665796e-01 
  2.613847761254e-01 
  2.294659645844e-01 
  2.038813133872e-01 
  2.176345846008e-01 
  2.313878558144e-01 
  1.697247792015e-01 
  1.834780504151e-01 
  1.355682450158e-01 
  1.232265651132e-03 
  3.987877073096e-02 
  7.852527581078e-02 
 -2.304290564021e-05 
  3.862346217418e-02 
 -1.278351462413e-03 
  1.659074844870e-01 
  1.220533297193e-01 
  7.819917495157e-02 
  1.506481028226e-01 
  1.067939480548e-01 
  1.353887211581e-01 
 -1.139539182905e-03 
  1.054206096537e-03 
  3.247951375980e-03 
  1.003610252390e-01 
  1.025547705184e-01 
  2.018615896609e-01 
  2.966709144474e-01 
  1.519801609244e-01 
  7.289407401366e-03 
  2.864088924005e-01 
  1.417181388775e-01 
  2.761468703537e-01 
  2.305418406809e-01 
  1.668583897197e-01 
  1.031749387585e-01 
  2.677106290165e-01 
  2.040271780553e-01 
  3.048794173520e-01 
  1.297178337994e-01 
  6.604689298624e-02 
  2.375952173121e-03 
  1.218360708034e-01 
  5.816512999033e-02 
  1.139543078075e-01 
  2.947862013951e-01 
  1.482934923352e-01 
  1.800783275226e-03 
  1.508050081646e-01 
  4.312299104645e-03 
  6.823814934063e-03 
  2.871079457445e-01 
  1.429589936539e-01 
 -1.189958436779e-03 
  1.462262700633e-01 
  2.077317972645e-03 
  5.344594382069e-03 
  2.420147060639e-01 
  1.235532703601e-01 
  5.091834656243e-03 
  2.258203097216e-01 
  1.073588740178e-01 
  2.096259133793e-01 
  2.005360897756e-01 
  1.006984484133e-01 
  8.608070509373e-04 
  2.409028939223e-01 
  1.410652525599e-01 
  2.812696980689e-01 
  2.604693950793e-01 
  2.569669427019e-01 
  2.534644903244e-01 
  2.631204918495e-01 
  2.596180394721e-01 
  2.657715886198e-01 
  3.250347682536e-01 
  1.641105627641e-01 
  3.186357274561e-03 
  1.638571674677e-01 
  2.932961978234e-03 
  2.679566681907e-03 
  2.919508469735e-01 
  2.876269141769e-01 
  2.833029813802e-01 
  3.181568279371e-01 
  3.138328951405e-01 
  3.443628089007e-01 
  2.802345135737e-01 
  2.872935576125e-01 
  2.943526016513e-01 
  2.419056763450e-01 
  2.489647203838e-01 
  2.035768391163e-01 
  3.164614321086e-01 
  2.895146352081e-01 
  2.625678383075e-01 
  3.079862842632e-01 
  2.810394873626e-01 
  2.995111364178e-01 
  2.653271615883e-01 
  2.574635534873e-01 
  2.495999453862e-01 
  2.822508240988e-01 
  2.743872159978e-01 
  2.991744866093e-01 
  3.032260868714e-01 
  2.909503552089e-01 
  2.786746235464e-01 
  3.233523673518e-01 
  3.110766356893e-01 
  3.434786478322e-01 
  3.438938302587e-01 
  3.674358124349e-01 
  3.909777946111e-01 
  3.231060014282e-01 
  3.466479836043e-01 
  3.023181725976e-01 
  3.442428923054e-01 
  3.151902923987e-01 
  2.861376924920e-01 
  3.327226489050e-01 
  3.036700489983e-01 
  3.212024055046e-01 
  2.914414698748e-01 
  3.167807852695e-01 
  3.421201006641e-01 
  2.854020028156e-01 
  3.107413182102e-01 
  2.793625357563e-01 
  3.202347794232e-01 
  3.174093177570e-01 
  3.145838560909e-01 
  3.579153817060e-01 
  3.550899200398e-01 
  3.955959839887e-01 
  3.215171989410e-01 
  3.065983079943e-01 
  2.916794170477e-01 
  1.660638984995e-01 
  1.511450075529e-01 
  1.061059805811e-02 
  3.241318863955e-01 
  3.585952802844e-01 
  3.930586741732e-01 
  3.668270859367e-01 
  4.012904798256e-01 
  4.095222854779e-01 
  3.925554442201e-01 
  3.572108902669e-01 
  3.218663363136e-01 
  3.465008006952e-01 
  3.111562467420e-01 
  3.004461571703e-01 
  2.981448967857e-01 
  3.090230884422e-01 
  3.199012800988e-01 
  3.232560807346e-01 
  3.341342723911e-01 
  3.483672646835e-01 
  3.185147799682e-01 
  3.079532866630e-01 
  2.973917933578e-01 
  2.893821897841e-01 
  2.788206964789e-01 
  2.602495996000e-01 
  4.051526866154e-01 
  4.003554631417e-01 
  3.955582396681e-01 
  3.595761083765e-01 
  3.547788849028e-01 
  3.139995301376e-01 
  3.212147480978e-01 
  3.564084747332e-01 
  3.916022013687e-01 
  3.322426140796e-01 
  3.674363407151e-01 
  3.432704800614e-01 
  7.218273711615e-03 
  1.603129206048e-01 
  3.134075674979e-01 
  1.647688499545e-01 
  3.178634968477e-01 
  3.223194261974e-01 