# vtk DataFile Version 2
NuDG++ 2D simulation
ASCII
DATASET UNSTRUCTURED_GRID

POINTS 2244 double
 -1.656250060000e-01  -2.000000030000e-01  0.0
 -1.828125045000e-01  -1.772221997500e-01  0.0
 -2.000000030000e-01  -1.544443965000e-01  0.0
 -1.828125045000e-01  -2.000000030000e-01  0.0
 -2.000000030000e-01  -1.772221997500e-01  0.0
 -2.000000030000e-01  -2.000000030000e-01  0.0
 -6.428571790000e-02  -1.700000018000e-01  0.0
 -8.058035746000e-02  -1.850000024000e-01  0.0
 -9.687499702000e-02  -2.000000030000e-01  0.0
 -6.339285895000e-02  -1.850000024000e-01  0.0
 -7.968749851000e-02  -2.000000030000e-01  0.0
 -6.250000000000e-02  -2.000000030000e-01  0.0
 -2.000000030000e-01  -1.544443965000e-01  0.0
 -1.750000045000e-01  -1.379364989500e-01  0.0
 -1.500000060000e-01  -1.214286014000e-01  0.0
 -2.000000030000e-01  -1.316666491500e-01  0.0
 -1.750000045000e-01  -1.151587516000e-01  0.0
 -2.000000030000e-01  -1.088889018000e-01  0.0
 -1.500000060000e-01  -1.214286014000e-01  0.0
 -1.750000045000e-01  -1.379364989500e-01  0.0
 -2.000000030000e-01  -1.544443965000e-01  0.0
 -1.500000060000e-01  -1.457143016000e-01  0.0
 -1.750000045000e-01  -1.622221991500e-01  0.0
 -1.500000060000e-01  -1.700000018000e-01  0.0
 -1.500000060000e-01  -7.285714149000e-02  0.0
 -1.750000045000e-01  -9.087302164500e-02  0.0
 -2.000000030000e-01  -1.088889018000e-01  0.0
 -1.500000060000e-01  -9.714287144500e-02  0.0
 -1.750000045000e-01  -1.151587516000e-01  0.0
 -1.500000060000e-01  -1.214286014000e-01  0.0
  1.832975030000e+00  -4.625000060000e-02  0.0
  1.853987515000e+00  -1.231250018000e-01  0.0
  1.875000000000e+00  -2.000000030000e-01  0.0
  1.916487515000e+00  -7.187499851000e-02  0.0
  1.937500000000e+00  -1.487499997100e-01  0.0
  2.000000000000e+00  -9.749999642000e-02  0.0
 -1.500000060000e-01  -1.700000018000e-01  0.0
 -1.360000037000e-01  -1.525000036000e-01  0.0
 -1.220000014000e-01  -1.350000054000e-01  0.0
 -1.500000060000e-01  -1.457143016000e-01  0.0
 -1.360000037000e-01  -1.282143034000e-01  0.0
 -1.500000060000e-01  -1.214286014000e-01  0.0
  2.849999964000e-01  -2.333333530000e-02  0.0
  2.837499976000e-01  -8.166666795000e-02  0.0
  2.824999988000e-01  -1.400000006000e-01  0.0
  3.174999952000e-01  -4.666666780000e-02  0.0
  3.162499964000e-01  -1.050000004500e-01  0.0
  3.499999940000e-01  -7.000000030000e-02  0.0
 -1.071429029000e-01  -1.700000018000e-01  0.0
 -8.571431040000e-02  -1.700000018000e-01  0.0
 -6.428571790000e-02  -1.700000018000e-01  0.0
 -9.857145324000e-02  -1.525000036000e-01  0.0
 -7.714286074000e-02  -1.525000036000e-01  0.0
 -9.000000358000e-02  -1.350000054000e-01  0.0
 -1.312499940000e-01  -2.000000030000e-01  0.0
 -1.191964484500e-01  -1.850000024000e-01  0.0
 -1.071429029000e-01  -1.700000018000e-01  0.0
 -1.406250000000e-01  -1.850000024000e-01  0.0
 -1.285714544500e-01  -1.700000018000e-01  0.0
 -1.500000060000e-01  -1.700000018000e-01  0.0
 -1.220000014000e-01  -1.350000054000e-01  0.0
 -1.060000024900e-01  -1.350000054000e-01  0.0
 -9.000000358000e-02  -1.350000054000e-01  0.0
 -1.185000017500e-01  -1.175000034500e-01  0.0
 -1.025000028400e-01  -1.175000034500e-01  0.0
 -1.150000021000e-01  -1.000000015000e-01  0.0
 -9.000000358000e-02  -1.350000054000e-01  0.0
 -1.060000024900e-01  -1.350000054000e-01  0.0
 -1.220000014000e-01  -1.350000054000e-01  0.0
 -9.857145324000e-02  -1.525000036000e-01  0.0
 -1.145714521500e-01  -1.525000036000e-01  0.0
 -1.071429029000e-01  -1.700000018000e-01  0.0
 -7.778175920000e-02  -9.192386270000e-02  0.0
 -9.639088065000e-02  -9.596193210000e-02  0.0
 -1.150000021000e-01  -1.000000015000e-01  0.0
 -8.389088139000e-02  -1.134619340500e-01  0.0
 -1.025000028400e-01  -1.175000034500e-01  0.0
 -9.000000358000e-02  -1.350000054000e-01  0.0
 -1.220000014000e-01  -1.350000054000e-01  0.0
 -1.185000017500e-01  -1.175000034500e-01  0.0
 -1.150000021000e-01  -1.000000015000e-01  0.0
 -1.360000037000e-01  -1.282143034000e-01  0.0
 -1.325000040500e-01  -1.107143014500e-01  0.0
 -1.500000060000e-01  -1.214286014000e-01  0.0
 -7.778175920000e-02  -9.192386270000e-02  0.0
 -8.389088139000e-02  -1.134619340500e-01  0.0
 -9.000000358000e-02  -1.350000054000e-01  0.0
 -6.639088876500e-02  -1.022535823500e-01  0.0
 -7.250001095500e-02  -1.237916537000e-01  0.0
 -5.500001833000e-02  -1.125833020000e-01  0.0
 -1.071429029000e-01  -1.700000018000e-01  0.0
 -1.145714521500e-01  -1.525000036000e-01  0.0
 -1.220000014000e-01  -1.350000054000e-01  0.0
 -1.285714544500e-01  -1.700000018000e-01  0.0
 -1.360000037000e-01  -1.525000036000e-01  0.0
 -1.500000060000e-01  -1.700000018000e-01  0.0
  6.250000093000e-03  -2.000000030000e-01  0.0
  4.062500153650e-02  -2.000000030000e-01  0.0
  7.500000298000e-02  -2.000000030000e-01  0.0
  1.383928512150e-02  -1.850000024000e-01  0.0
  4.821428656500e-02  -1.850000024000e-01  0.0
  2.142857015000e-02  -1.700000018000e-01  0.0
 -1.500000060000e-01  -7.285714149000e-02  0.0
 -1.500000060000e-01  -9.714287144500e-02  0.0
 -1.500000060000e-01  -1.214286014000e-01  0.0
 -1.325000040500e-01  -8.642857149500e-02  0.0
 -1.325000040500e-01  -1.107143014500e-01  0.0
 -1.150000021000e-01  -1.000000015000e-01  0.0
 -2.000000030000e-01  -6.333333254000e-02  0.0
 -1.750000045000e-01  -6.809523701500e-02  0.0
 -1.500000060000e-01  -7.285714149000e-02  0.0
 -1.750000045000e-01  -4.380952660000e-02  0.0
 -1.500000060000e-01  -4.857143107500e-02  0.0
 -1.500000060000e-01  -2.428572066000e-02  0.0
 -2.000000030000e-01  -6.333333254000e-02  0.0
 -2.000000030000e-01  -8.611111717000e-02  0.0
 -2.000000030000e-01  -1.088889018000e-01  0.0
 -1.750000045000e-01  -6.809523701500e-02  0.0
 -1.750000045000e-01  -9.087302164500e-02  0.0
 -1.500000060000e-01  -7.285714149000e-02  0.0
 -2.000000030000e-01  -6.333333254000e-02  0.0
 -1.750000045000e-01  -4.380952660000e-02  0.0
 -1.500000060000e-01  -2.428572066000e-02  0.0
 -2.000000030000e-01  -4.055555630500e-02  0.0
 -1.750000045000e-01  -2.103175036500e-02  0.0
 -2.000000030000e-01  -1.777778007000e-02  0.0
 -1.500000060000e-01  -2.428572066000e-02  0.0
 -1.500000060000e-01  -4.857143107500e-02  0.0
 -1.500000060000e-01  -7.285714149000e-02  0.0
 -1.281259023000e-01  -2.896608505500e-02  0.0
 -1.281259023000e-01  -5.325179547000e-02  0.0
 -1.062517986000e-01  -3.364644945000e-02  0.0
 -1.099999994000e-01   1.996667010000e-08  0.0
 -1.300000027000e-01  -1.214285034666e-02  0.0
 -1.500000060000e-01  -2.428572066000e-02  0.0
 -1.081258990000e-01  -1.682321474166e-02  0.0
 -1.281259023000e-01  -2.896608505500e-02  0.0
 -1.062517986000e-01  -3.364644945000e-02  0.0
 -1.500000060000e-01  -2.428572066000e-02  0.0
 -1.500000060000e-01   0.000000000000e+00  0.0
 -1.500000060000e-01   2.428572066000e-02  0.0
 -1.750000045000e-01  -2.103175036500e-02  0.0
 -1.750000045000e-01   3.253970295000e-03  0.0
 -2.000000030000e-01  -1.777778007000e-02  0.0
 -1.500000060000e-01  -7.285714149000e-02  0.0
 -1.226314045700e-01  -6.892856210000e-02  0.0
 -9.526280314000e-02  -6.499998271000e-02  0.0
 -1.281259023000e-01  -5.325179547000e-02  0.0
 -1.007573008700e-01  -4.932321608000e-02  0.0
 -1.062517986000e-01  -3.364644945000e-02  0.0
  3.499999940000e-01   1.400000006000e-01  0.0
  4.021931737500e-01   1.224999986500e-01  0.0
  4.543863535000e-01   1.049999967000e-01  0.0
  4.187500029500e-01   1.749999970000e-01  0.0
  4.709431827000e-01   1.574999950500e-01  0.0
  4.875000119000e-01   2.099999934000e-01  0.0
 -7.101409137000e-02  -4.349999130000e-02  0.0
 -8.313844725500e-02  -5.424998700500e-02  0.0
 -9.526280314000e-02  -6.499998271000e-02  0.0
 -6.449843011500e-02  -5.250913650000e-02  0.0
 -7.662278600000e-02  -6.325913220500e-02  0.0
 -5.798276886000e-02  -6.151828170000e-02  0.0
 -9.526280314000e-02  -6.499998271000e-02  0.0
 -1.226314045700e-01  -6.892856210000e-02  0.0
 -1.500000060000e-01  -7.285714149000e-02  0.0
 -1.051314026200e-01  -8.249999210500e-02  0.0
 -1.325000040500e-01  -8.642857149500e-02  0.0
 -1.150000021000e-01  -1.000000015000e-01  0.0
 -6.181925908000e-02  -1.656441018000e-02  0.0
 -7.051259093000e-02  -1.954082492500e-02  0.0
 -7.920592278000e-02  -2.251723967000e-02  0.0
 -5.862244405000e-02  -2.428220026000e-02  0.0
 -6.731577590000e-02  -2.725861500500e-02  0.0
 -5.542562902000e-02  -3.199999034000e-02  0.0
 -7.920592278000e-02  -2.251723967000e-02  0.0
 -9.272886069000e-02  -2.808184456000e-02  0.0
 -1.062517986000e-01  -3.364644945000e-02  0.0
 -7.511000707500e-02  -3.300861548500e-02  0.0
 -8.863294498500e-02  -3.857322037500e-02  0.0
 -7.101409137000e-02  -4.349999130000e-02  0.0
 -7.101409137000e-02  -4.349999130000e-02  0.0
 -6.321986019500e-02  -3.774999082000e-02  0.0
 -5.542562902000e-02  -3.199999034000e-02  0.0
 -7.511000707500e-02  -3.300861548500e-02  0.0
 -6.731577590000e-02  -2.725861500500e-02  0.0
 -7.920592278000e-02  -2.251723967000e-02  0.0
 -7.920592278000e-02  -2.251723967000e-02  0.0
 -9.460296109000e-02  -1.125860985166e-02  0.0
 -1.099999994000e-01   1.996667010000e-08  0.0
 -9.272886069000e-02  -2.808184456000e-02  0.0
 -1.081258990000e-01  -1.682321474166e-02  0.0
 -1.062517986000e-01  -3.364644945000e-02  0.0
 -7.778175920000e-02  -9.192386270000e-02  0.0
 -6.788226403000e-02  -7.672107220000e-02  0.0
 -5.798276886000e-02  -6.151828170000e-02  0.0
 -8.652228117000e-02  -7.846192270500e-02  0.0
 -7.662278600000e-02  -6.325913220500e-02  0.0
 -9.526280314000e-02  -6.499998271000e-02  0.0
 -7.101409137000e-02  -4.349999130000e-02  0.0
 -8.863294498500e-02  -3.857322037500e-02  0.0
 -1.062517986000e-01  -3.364644945000e-02  0.0
 -8.313844725500e-02  -5.424998700500e-02  0.0
 -1.007573008700e-01  -4.932321608000e-02  0.0
 -9.526280314000e-02  -6.499998271000e-02  0.0
 -7.778175920000e-02  -9.192386270000e-02  0.0
 -8.652228117000e-02  -7.846192270500e-02  0.0
 -9.526280314000e-02  -6.499998271000e-02  0.0
 -9.639088065000e-02  -9.596193210000e-02  0.0
 -1.051314026200e-01  -8.249999210500e-02  0.0
 -1.150000021000e-01  -1.000000015000e-01  0.0
[...]
POINT_DATA 2244
SCALARS field1 double 1
LOOKUP_TABLE default
  2.039742096315e-03 
  5.415125848005e-02 
  1.062627748638e-01 
  1.213048531007e-03 
  5.332456491474e-02 
  3.863549656984e-04 
  2.106950921986e-01 
  1.059365502170e-01 
  1.178008235520e-03 
  1.061609296601e-01 
  1.402387678569e-03 
  1.626767121617e-03 
  1.046668337871e-01 
  1.354833799384e-01 
  1.662999260898e-01 
  1.446617230819e-01 
  1.754782692332e-01 
  1.846566123767e-01 
  1.679077607821e-01 
  1.356238134413e-01 
  1.033398661006e-01 
  1.349003615664e-01 
  1.026164142257e-01 
  1.018929623508e-01 
  2.261634464642e-01 
  2.054605352873e-01 
  1.847576241104e-01 
  1.976572048530e-01 
  1.769542936761e-01 
  1.691509632418e-01 
  2.354344410292e-01 
  1.358526423467e-01 
  3.627084366410e-02 
  2.237145989709e-01 
  1.241328002883e-01 
  2.119947569126e-01 
  1.032285141080e-01 
  1.392678633333e-01 
  1.753072125587e-01 
  1.361054933707e-01 
  1.721448425960e-01 
  1.689824726333e-01 
  1.998796222051e-01 
  2.115922992299e-01 
  2.233049762546e-01 
  2.065316926000e-01 
  2.182443696248e-01 
  2.131837629949e-01 
  1.635140091602e-01 
  1.855083842080e-01 
  2.075027592559e-01 
  1.802694513313e-01 
  2.022638263791e-01 
  1.970248935024e-01 
  2.130145190755e-03 
  8.278087983013e-02 
  1.634316144695e-01 
  5.176649012902e-02 
  1.324172247684e-01 
  1.014028350673e-01 
  1.719075909065e-01 
  1.822780957464e-01 
  1.926486005863e-01 
  1.870632033801e-01 
  1.974337082200e-01 
  2.022188158537e-01 
  1.945485655679e-01 
  1.833236363632e-01 
  1.720987071585e-01 
  1.791791256667e-01 
  1.679541964620e-01 
  1.638096857655e-01 
  2.291571304421e-01 
  2.153128211896e-01 
  2.014685119371e-01 
  2.117594080939e-01 
  1.979150988415e-01 
  1.943616857458e-01 
  1.724635402158e-01 
  1.884230024143e-01 
  2.043824646129e-01 
  1.718513544113e-01 
  1.878108166099e-01 
  1.712391686069e-01 
  2.295037278998e-01 
  2.127965093779e-01 
  1.960892908560e-01 
  2.399738551067e-01 
  2.232666365849e-01 
  2.504439823137e-01 
  1.621960529773e-01 
  1.683994356090e-01 
  1.746028182406e-01 
  1.325234442980e-01 
  1.387268269297e-01 
  1.028508356187e-01 
  1.617418521965e-03 
  2.287397523586e-03 
  2.957376525208e-03 
  1.250966837142e-01 
  1.257666627158e-01 
  2.485759489063e-01 
  2.257255127909e-01 
  1.983533681957e-01 
  1.709812236006e-01 
  2.156661014233e-01 
  1.882939568282e-01 
  2.056066900557e-01 
  2.398378047633e-01 
  2.317719322532e-01 
  2.237060597432e-01 
  2.438344802823e-01 
  2.357686077723e-01 
  2.478311558014e-01 
  2.388987829277e-01 
  2.123985776922e-01 
  1.858983724566e-01 
  2.319259593733e-01 
  2.054257541377e-01 
  2.249531358189e-01 
  2.403769276387e-01 
  2.444476183616e-01 
  2.485183090844e-01 
  2.535276850410e-01 
  2.575983757639e-01 
  2.666784424433e-01 
  2.470211558744e-01 
  2.362544839152e-01 
  2.254878119560e-01 
  2.219624130541e-01 
  2.111957410949e-01 
  1.969036702338e-01 
  1.758902059975e-01 
  2.113814425022e-01 
  2.468726790069e-01 
  1.858410773973e-01 
  2.213323139021e-01 
  1.957919487972e-01 
  2.446909604422e-01 
  2.456470245213e-01 
  2.466030886004e-01 
  2.562690776381e-01 
  2.572251417172e-01 
  2.678471948339e-01 
  2.249831079785e-01 
  2.154258003985e-01 
  2.058684928185e-01 
  2.105671425005e-01 
  2.010098349205e-01 
  1.961511770226e-01 
  2.258600684730e-01 
  2.388628033805e-01 
  2.518655382880e-01 
  1.326849395279e-01 
  1.456876744354e-01 
  3.950981058276e-02 
  1.694958350788e-01 
  1.895262092158e-01 
  2.095565833528e-01 
  1.962411310584e-01 
  2.162715051955e-01 
  2.229864270381e-01 
  2.068526607166e-01 
  2.159428775808e-01 
  2.250330944451e-01 
  2.063106700406e-01 
  2.154008869049e-01 
  2.057686793647e-01 
  5.805264899923e-02 
  9.459458732842e-02 
  1.311365256576e-01 
  7.618427282406e-02 
  1.127262111533e-01 
  9.431589664889e-02 
  1.284752503468e-01 
  1.615563664904e-01 
  1.946374826341e-01 
  1.488679004565e-01 
  1.819490166001e-01 
  1.692605505662e-01 
  1.689775629508e-01 
  1.324853697902e-01 
  9.599317662962e-02 
  1.493492610189e-01 
  1.128570678583e-01 
  1.297209590871e-01 
  1.275497854426e-01 
  1.507879284003e-01 
  1.740260713579e-01 
  1.614090305745e-01 
  1.846471735321e-01 
  1.952682757064e-01 
  2.301281148569e-01 
  2.272903118095e-01 
  2.244525087621e-01 
  2.194925563983e-01 
  2.166547533509e-01 
  2.088569979397e-01 
  1.704062657483e-01 
  1.825171077871e-01 
  1.946279498259e-01 
  1.899008677236e-01 
  2.020117097624e-01 
  2.093954696990e-01 
  2.277822513329e-01 
  2.179126694348e-01 
  2.080430875367e-01 
  2.155735635297e-01 
  2.057039816316e-01 
  2.033648757265e-01 
  1.299712270117e-01 
  9.423954599000e-02 
  5.850786496834e-02 
  1.189176030280e-01 
  8.318592200637e-02 
  1.078639790444e-01 
  2.484480935679e-01 
  2.230186486528e-01 
  1.975892037377e-01 
  2.281140124462e-01 
  2.026845675310e-01 
  2.077799313244e-01 
  2.148414700279e-01 
  2.191049266244e-01 
  2.233683832209e-01 
  2.016230291415e-01 
  2.058864857380e-01 
  1.884045882551e-01 
  2.610344210615e-01 
  2.493414663363e-01 
  2.376485116111e-01 
  2.693681118512e-01 
  2.576751571260e-01 
  2.777018026409e-01 
  2.583353746073e-01 
  2.524930161496e-01 
  2.466506576919e-01 
  2.331976740934e-01 
  2.273553156357e-01 
  2.080599735796e-01 
  2.292455824523e-01 
  2.495361955008e-01 
  2.698268085493e-01 
  2.266759804309e-01 
  2.469665934794e-01 
  2.241063784096e-01 
  2.707672575041e-01 
  2.499998545899e-01 
  2.292324516758e-01 
  2.603908228849e-01 
  2.396234199707e-01 
  2.500143882656e-01 
  3.120571031971e-01 
  2.924426211508e-01 
  2.728281391044e-01 
  2.797236727038e-01 
  2.601091906574e-01 
  2.473902422104e-01 
  2.260198537043e-01 
  2.246821173673e-01 
  2.233443810302e-01 
  2.497414465789e-01 
  2.484037102419e-01 
  2.734630394535e-01 
  2.458260079168e-01 
  2.529335015114e-01 
  2.600409951060e-01 
  2.792854657829e-01 
  2.863929593775e-01 
  3.127449236490e-01 
  2.602354336950e-01 
  2.343074720215e-01 
  2.083795103479e-01 
  2.485653780138e-01 
  2.226374163402e-01 
  2.368953223325e-01 
  3.319738925572e-01 
  3.231904119622e-01 
  3.144069313672e-01 
  2.966701890708e-01 
  2.878867084758e-01 
  2.613664855844e-01 
  1.342868383973e-03 
  1.291648225195e-01 
  2.569867766550e-01 
  6.259091450853e-04 
  1.284478632806e-01 
 -9.105009380187e-05 
  3.186039782508e-01 
  2.886586589308e-01 
  2.587133396109e-01 
  2.866016931622e-01 
  2.566563738422e-01 
  2.545994080736e-01 
  2.592855183674e-01 
  2.886835059935e-01 
  3.180814936195e-01 
  2.946154675988e-01 
  3.240134552249e-01 
  3.299454168302e-01 
  2.536280141855e-01 
  2.559933613552e-01 
  2.583587085248e-01 
  1.290247708661e-01 
  1.313901180358e-01 
  4.421527546760e-03 
  3.148414937054e-01 
  2.861704837575e-01 
  2.574994738096e-01 
  2.948713698510e-01 
  2.662003599031e-01 
  2.749012459967e-01 
  3.138695880001e-01 
  2.850786991235e-01 
  2.562878102470e-01 
  3.217904212725e-01 
  2.929995323959e-01 
  3.297112545449e-01 
  3.304525089583e-01 
  2.963602017019e-01 
  2.622678944454e-01 
  3.025134826968e-01 
  2.684211754404e-01 
  2.745744564353e-01 
  2.375352398032e-01 
  2.397350778492e-01 
  2.419349158953e-01 
  2.576314107484e-01 
  2.598312487944e-01 
  2.777275816935e-01 
  2.247980773493e-01 
  2.506001562306e-01 
  2.764022351120e-01 
  2.405282850144e-01 
  2.663303638957e-01 
  2.562584926795e-01 
 -1.243304966559e-03 
  4.837095371859e-02 
  9.798521240373e-02 
  1.829106182673e-03 
  5.144336486782e-02 
  4.901517331905e-03 
  9.689375221556e-02 
  1.321079080645e-01 
  1.673220639135e-01 
  1.324084904890e-01 
  1.676226463380e-01 
  1.679232287625e-01 
  2.042297263189e-01 
  1.053375578922e-01 
  6.445389465535e-03 
  1.015611722598e-01 
  2.669003833062e-03 
 -1.107381799410e-03 
 -3.060226162271e-03 
  8.389668949794e-03 
  1.983956406186e-02 
  2.698030942370e-02 
  3.843020453577e-02 
  5.702084500967e-02 
  7.642373700427e-04 
 -1.663074317699e-03 
 -4.090386005440e-03 
  4.630692797578e-02 
  4.387961628804e-02 
  9.184961858152e-02 
  1.798417849023e-01 
  9.084441356336e-02 
  1.847042224446e-03 
  1.480049093283e-01 
  5.900753798938e-02 
  1.161680337543e-01 
  9.751032555150e-02 
  1.343609222300e-01 
  1.712115189084e-01 
  5.200928153464e-02 
  8.885987821310e-02 
  6.508237517789e-03 
 -5.156405851175e-03 
  2.590838679371e-02 
  5.697317943860e-02 
  4.333639324701e-02 
  7.440118589190e-02 
  9.182919234520e-02 
  1.961541643386e-03 
  2.113703382597e-03 
  2.265865121807e-03 
  1.290505830185e-01 
  1.292027447577e-01 
  2.561396243935e-01 
  3.124055181806e-03 
  1.319301880571e-01 
  2.607363209324e-01 
  2.602319541169e-03 
  1.314084524164e-01 
  2.080583900532e-03 
  2.499271751543e-01 
  1.289725704454e-01 
  8.017965736460e-03 
  2.350371045083e-01 
  1.140824997994e-01 
  2.201470338623e-01 
  1.332595901257e-03 
  8.935825264887e-02 
  1.773839093965e-01 
  3.435891508277e-03 
  9.146154825589e-02 
  5.539187115297e-03 
  5.185905237367e-03 
  1.150483620379e-01 
  2.249108188385e-01 
  1.296773776280e-01 
  2.395398344285e-01 
  2.541688500185e-01 
  2.384900639643e-01 
  1.230779828797e-01 
  7.665901794993e-03 
  2.406027216551e-01 
  1.251906405704e-01 
  2.427153793458e-01 
  1.669910156156e-01 
  8.392618555339e-02 
  8.613554911486e-04 
  8.510735699288e-02 
  2.042526930636e-03 
  3.223698370123e-03 
  8.832178717711e-03 
  9.190804025032e-02 
  1.749839017829e-01 
  1.163941861886e-01 
  1.994700477212e-01 
  2.239561936594e-01 
  1.708088965984e-01 
  1.974836383710e-01 
  2.241583801437e-01 
  1.978931864333e-01 
  2.245679282059e-01 
  2.249774762682e-01 
  2.118790513849e-01 
  1.095571924221e-01 
  7.235333459256e-03 
  2.232853277588e-01 
  1.209634687960e-01 
  2.346916041327e-01 
  3.288895980472e-01 
  3.015758276510e-01 
  2.742620572548e-01 
  3.021058287496e-01 
  2.747920583534e-01 
  2.753220594520e-01 
  1.685675831559e-01 
  1.677406346955e-01 
  1.669136862352e-01 
  1.964336190198e-01 
  1.956066705594e-01 
  2.242996548836e-01 
  1.105563748747e-03 
  2.931072789261e-03 
  4.756581829775e-03 
  1.081641363045e-01 
  1.099896453450e-01 
  2.152227088603e-01 
  1.763081660326e-02 
  8.122148495884e-03 
 -1.386519611492e-03 
  7.921164692632e-03 
 -1.587503414743e-03 
 -1.788487217994e-03 
  2.404041396901e-01 
  2.430084547537e-01 
  2.456127698173e-01 
  2.191511313911e-01 
  2.217554464547e-01 
  1.978981230921e-01 
  2.482734246648e-01 
  2.571596708686e-01 
  2.660459170723e-01 
  2.580329544665e-01 
  2.669192006702e-01 
  2.677924842682e-01 
  2.647219370289e-01 
  2.521349850320e-01 
  2.395480330352e-01 
  2.521495393310e-01 
  2.395625873341e-01 
  2.395771416330e-01 
  2.386092113624e-01 
  2.516330354438e-01 
  2.646568595253e-01 
  2.420266688913e-01 
  2.550504929727e-01 
  2.454441264201e-01 
  2.391013128817e-01 
  2.401010789941e-01 
  2.411008451065e-01 
  2.126334022804e-01 
  2.136331683928e-01 
  1.861654916791e-01 
  1.860540947004e-02 
  5.377783109417e-03 
 -7.849843251209e-03 
  1.177789952640e-01 
  1.045513689033e-01 
  2.169525810579e-01 
  2.466488385743e-01 
  2.115814542743e-01 
  1.765140699743e-01 
  2.214968802907e-01 
  1.864294959907e-01 
  1.963449220071e-01 
  2.459390557995e-01 
  2.455961801915e-01 
  2.452533045834e-01 
  2.115226573548e-01 
  2.111797817467e-01 
  1.771062589100e-01 
  1.254463745441e-01 
  1.604252766226e-01 
  1.954041787010e-01 
  1.502295938986e-01 
  1.852084959770e-01 
  1.750128132530e-01 
  1.788269743838e-01 
  1.525809290614e-01 
  1.263348837389e-01 
  1.419551707847e-01 
  1.157091254622e-01 
  1.050833671855e-01 
  1.940211098556e-01 
  1.850762051074e-01 
  1.761313003593e-01 
  1.997510200533e-01 
  1.908061153051e-01 
  2.054809302510e-01 
  1.758172187835e-01 
  1.847388121705e-01 
  1.936604055576e-01 
  1.511064118447e-01 
  1.600280052318e-01 
  1.263956049060e-01 
  2.268712606381e-01 
  2.156681305942e-01 
  2.044650005503e-01 
  2.294908690511e-01 
  2.182877390073e-01 
  2.321104774642e-01 
  1.967574941948e-01 
  2.003088297983e-01 
  2.038601654017e-01 
  2.187741332531e-01 
  2.223254688566e-01 
  2.407907723114e-01 
  1.267902824335e-01 
  1.170470115771e-01 
  1.073037407207e-01 
  9.206067523454e-02 
  8.231740437810e-02 
  5.733106803553e-02 
  1.254825394100e-01 
  1.501036055674e-01 
  1.747246717247e-01 
  1.167313311341e-01 
  1.413523972915e-01 
  1.079801228583e-01 
  1.739802393940e-01 
  1.508457754025e-01 
  1.277113114110e-01 
  1.411859871759e-01 
  1.180515231844e-01 
  1.083917349578e-01 
  2.405692327381e-01 
  2.226909459994e-01 
  2.048126592607e-01 
  2.279559620390e-01 
  2.100776753003e-01 
  2.153426913399e-01 
  1.845760341852e-01 
  1.796188300444e-01 
  1.746616259036e-01 
  1.448126089794e-01 
  1.398554048386e-01 
  1.050491837736e-01 
  1.850849421463e-01 
  2.134481426243e-01 
  2.418113431023e-01 
  1.811037135533e-01 
  2.094669140313e-01 
  1.771224849602e-01 
  1.042325756250e-01 
  1.113498713475e-01 
  1.184671670700e-01 
  5.229557091241e-02 
  5.941286663491e-02 
  3.585661998151e-04 
  1.200354382390e-01 
  1.120048009631e-01 
  1.039741636872e-01 
  1.481792088134e-01 
  1.401485715375e-01 
  1.763229793878e-01 
  1.902317661193e-01 
  9.852561543234e-02 
  6.819464745424e-03 
  9.474413554224e-02 
  3.037984855320e-03 
 -7.434950347850e-04 
  1.755038396761e-02 
  1.006356354888e-02 
  2.576743130148e-03 
  1.285891713106e-01 
  1.211023508919e-01 
  2.396279586536e-01 
  1.783584915249e-01 
  1.785992896064e-01 
  1.788400876878e-01 
  1.491273971551e-01 
  1.493681952365e-01 
  1.198963027853e-01 
  2.167993781309e-01 
  1.068731332269e-01 
 -3.053111677131e-03 
  1.188173305206e-01 
  8.891085616543e-03 
  2.083528291022e-02 
  2.111337220059e-01 
  2.179120228114e-01 
  2.246903236168e-01 
  2.071690750257e-01 
  2.139473758311e-01 
  2.032044280454e-01 
  2.239736264346e-01 
  2.186122328677e-01 
  2.132508393007e-01 
  2.148750826461e-01 
  2.095136890792e-01 
  2.057765388576e-01 
  1.740686492520e-01 
  1.900947198594e-01 
  2.061207904667e-01 
  1.780262863822e-01 
  1.940523569896e-01 
  1.819839235124e-01 
  2.019938413673e-01 
  1.891466710428e-01 
  1.762995007183e-01 
  2.069811375761e-01 
  1.941339672516e-01 
  2.119684337848e-01 
  1.855674620196e-01 
  1.967968598747e-01 
  2.080262577297e-01 
  2.060976258542e-01 
  2.173270237093e-01 
  2.266277896888e-01 
  1.772816554219e-01 
  1.774728967253e-01 
  1.776641380287e-01 
  1.477194088960e-01 
  1.479106501994e-01 
  1.181571623701e-01 
  2.246919061971e-01 
  2.364034540043e-01 
  2.481150018115e-01 
  2.149396961547e-01 
  2.266512439619e-01 
  2.051874861123e-01 
  2.146104503836e-01 
  1.959521841429e-01 
  1.772939179022e-01 
  1.974251555380e-01 
  1.787668892973e-01 
  1.802398606925e-01 
  2.409246229620e-01 
  2.282491645714e-01 
  2.155737061809e-01 
  2.102049788433e-01 
  1.975295204527e-01 
  1.794853347245e-01 
  1.895622835201e-01 
  2.066346270000e-01 
  2.237069704799e-01 
  9.979871990013e-02 
  1.168710633801e-01 
  1.003515628017e-02 
  2.040469924880e-01 
  1.907375520849e-01 
  1.774281116819e-01 
  2.177196399616e-01 
  2.044101995585e-01 
  2.313922874352e-01 
  5.181990792055e-02 
  1.416204939988e-01 
  2.314210800770e-01 
  1.172933471845e-01 
  2.070939332627e-01 
  1.827667864485e-01 
  1.916504694645e-02 
  8.964745350259e-03 
 -1.235556245936e-03 
  3.827744322539e-02 
  2.807714162919e-02 
  5.738983950432e-02 
  1.746955391799e-02 
  7.698403378488e-03 
 -2.072747161018e-03 
  8.423079556224e-03 
 -1.348070983282e-03 
 -6.233948055460e-04 
  5.809263639433e-02 
  2.936066455114e-02 
  6.286927079504e-04 
  7.993505472339e-02 
  5.120308288021e-02 
  1.017774730525e-01 
  1.557164454747e-01 
  1.291245406633e-01 
  1.025326358519e-01 
  7.705216435544e-02 
  5.046025954403e-02 
 -1.612116763819e-03 
  1.600681634795e-01 
  1.967760235646e-01 
  2.334838836498e-01 
  1.697819921385e-01 
  2.064898522237e-01 
  1.794958207975e-01 
  1.581568625992e-01 
  1.695505949120e-01 
  1.809443272249e-01 
  1.310006814814e-01 
  1.423944137942e-01 
  1.038445003636e-01 
  9.359127426000e-04 
  2.949118618150e-02 
  5.804645962040e-02 
  1.036586147724e-05 
  2.856563930038e-02 
 -9.151810196455e-04 
  1.273736109694e-01 
  9.249802257577e-02 
  5.762243418217e-02 
  1.154581595653e-01 
  8.058257117166e-02 
  1.035427081611e-01 
 -1.040724305546e-03 
  5.771504513842e-04 
  2.195025208315e-03 
  7.761449313091e-02 
  7.923236788784e-02 
  1.562697105674e-01 
  2.456869193353e-01 
  1.261594708088e-01 
  6.632022282270e-03 
  2.354944700126e-01 
  1.159670214861e-01 
  2.253020206900e-01 
  2.041414064922e-01 
  1.488089481871e-01 
  9.347648988207e-02 
  2.216410502067e-01 
  1.663085919016e-01 
  2.391406939212e-01 
  1.050461598372e-01 
  5.361795994333e-02 
  2.189760049504e-03 
  1.024395811596e-01 
  5.101138126572e-02 
  9.983300248194e-02 
  2.325858179150e-01 
  1.169681019831e-01 
  1.350386051137e-03 
  1.190416207079e-01 
  3.423904775961e-03 
  5.497423500786e-03 
  2.263910280767e-01 
  1.125535935692e-01 
 -1.283840938366e-03 
  1.151658866568e-01 
  1.328452149224e-03 
  3.940745236813e-03 
  2.032402659239e-01 
  1.042179747588e-01 
  5.195683593659e-03 
  1.897366735146e-01 
  9.071438234947e-02 
  1.762330811053e-01 
  1.556808439565e-01 
  7.797652706885e-02 
  2.722101812134e-04 
  1.889047079264e-01 
  1.112003910387e-01 
  2.221285718962e-01 
  2.074959655572e-01 
  2.100583845699e-01 
  2.126208035827e-01 
  2.130154781262e-01 
  2.155778971390e-01 
  2.185349906953e-01 
  2.624598182253e-01 
  1.325078600479e-01 
  2.555901870524e-03 
  1.325645452550e-01 
  2.612587077597e-03 
  2.669272284670e-03 
  2.323381852469e-01 
  2.280756548270e-01 
  2.238131244071e-01 
  2.544721182190e-01 
  2.502095877991e-01 
  2.766060511911e-01 
  2.214391815052e-01 
  2.278265243660e-01 
  2.342138672268e-01 
  1.897110611347e-01 
  1.960984039955e-01 
  1.579829407643e-01 
  2.557545557659e-01 
  2.389512504361e-01 
  2.221479451064e-01 
  2.508392527859e-01 
  2.340359474562e-01 
  2.459239498060e-01 
  2.246038852615e-01 
  2.164182882476e-01 
  2.082326912336e-01 
  2.352438355965e-01 
  2.270582385826e-01 
  2.458837859315e-01 
  2.490642972913e-01 
  2.372802453907e-01 
  2.254961934902e-01 
  2.624222568187e-01 
  2.506382049181e-01 
  2.757802163460e-01 
  2.764040876885e-01 
  2.964051149185e-01 
  3.164061421486e-01 
  2.621945398446e-01 
  2.821955670746e-01 
  2.479849920007e-01 
  2.765653603138e-01 
  2.512352886811e-01 
  2.259052170485e-01 
  2.676961185615e-01 
  2.423660469288e-01 
  2.588268768091e-01 
  2.322243224335e-01 
  2.535024167835e-01 
  2.747805111335e-01 
  2.291094397063e-01 
  2.503875340563e-01 
  2.259945569790e-01 
  2.582501010198e-01 
  2.584935242954e-01 
  2.587369475711e-01 
  2.892962017238e-01 
  2.895396249995e-01 
  3.203423024278e-01 
  2.591069773452e-01 
  2.445774142511e-01 
  2.300478511570e-01 
  1.337729888779e-01 
  1.192434257838e-01 
  8.439000410584e-03 
  2.620059940947e-01 
  2.901197477014e-01 
  3.182335013081e-01 
  2.957000869717e-01 
  3.238138405784e-01 
  3.293941798488e-01 
  3.176185821116e-01 
  2.889126105527e-01 
  2.602066389938e-01 
  2.820053508689e-01 
  2.532993793099e-01 
  2.463921196261e-01 
  2.492142994051e-01 
  2.541363385665e-01 
  2.590583777280e-01 
  2.649476894521e-01 
  2.698697286135e-01 
  2.806810794990e-01 
  2.575557221362e-01 
  2.531271210364e-01 
  2.486985199366e-01 
  2.389254390186e-01 
  2.344968379188e-01 
  2.202951559011e-01 
  3.266256691975e-01 
  3.233914323975e-01 
  3.201571955975e-01 
  2.926750351989e-01 
  2.894407983988e-01 
  2.587244012002e-01 
  2.590275786223e-01 
  2.881965882214e-01 
  3.173655978204e-01 
  2.674082811588e-01 
  2.965772907578e-01 
  2.757889836953e-01 
  6.366076828263e-03 
  1.320155299974e-01 
  2.576649831666e-01 
  1.332399671932e-01 
  2.588894203624e-01 
  2.601138575581e-01 