# vtk DataFile Version 2
NuDG++ 2D simulation
ASCII
DATASET UNSTRUCTURED_GRID

POINTS 2244 double
 -1.656250060000e-01  -2.000000030000e-01  0.0
 -1.828125045000e-01  -1.772221997500e-01  0.0
 -2.000000030000e-01  -1.544443965000e-01  0.0
 -1.828125045000e-01  -2.000000030000e-01  0.0
 -2.000000030000e-01  -1.772221997500e-01  0.0
 -2.000000030000e-01  -2.000000030000e-01  0.0
 -6.428571790000e-02  -1.700000018000e-01  0.0
 -8.058035746000e-02  -1.850000024000e-01  0.0
 -9.687499702000e-02  -2.000000030000e-01  0.0
 -6.339285895000e-02  -1.850000024000e-01  0.0
 -7.968749851000e-02  -2.000000030000e-01  0.0
 -6.250000000000e-02  -2.000000030000e-01  0.0
 -2.000000030000e-01  -1.544443965000e-01  0.0
 -1.750000045000e-01  -1.379364989500e-01  0.0
 -1.500000060000e-01  -1.214286014000e-01  0.0
 -2.000000030000e-01  -1.316666491500e-01  0.0
 -1.750000045000e-01  -1.151587516000e-01  0.0
 -2.000000030000e-01  -1.088889018000e-01  0.0
 -1.500000060000e-01  -1.214286014000e-01  0.0
 -1.750000045000e-01  -1.379364989500e-01  0.0
 -2.000000030000e-01  -1.544443965000e-01  0.0
 -1.500000060000e-01  -1.457143016000e-01  0.0
 -1.750000045000e-01  -1.622221991500e-01  0.0
 -1.500000060000e-01  -1.700000018000e-01  0.0
 -1.500000060000e-01  -7.285714149000e-02  0.0
 -1.750000045000e-01  -9.087302164500e-02  0.0
 -2.000000030000e-01  -1.088889018000e-01  0.0
 -1.500000060000e-01  -9.714287144500e-02  0.0
 -1.750000045000e-01  -1.151587516000e-01  0.0
 -1.500000060000e-01  -1.214286014000e-01  0.0
  1.832975030000e+00  -4.625000060000e-02  0.0
  1.853987515000e+00  -1.231250018000e-01  0.0
  1.875000000000e+00  -2.000000030000e-01  0.0
  1.916487515000e+00  -7.187499851000e-02  0.0
  1.937500000000e+00  -1.487499997100e-01  0.0
  2.000000000000e+00  -9.749999642000e-02  0.0
 -1.500000060000e-01  -1.700000018000e-01  0.0
 -1.360000037000e-01  -1.525000036000e-01  0.0
 -1.220000014000e-01  -1.350000054000e-01  0.0
 -1.500000060000e-01  -1.457143016000e-01  0.0
 -1.360000037000e-01  -1.282143034000e-01  0.0
 -1.500000060000e-01  -1.214286014000e-01  0.0
  2.849999964000e-01  -2.333333530000e-02  0.0
  2.837499976000e-01  -8.166666795000e-02  0.0
  2.824999988000e-01  -1.400000006000e-01  0.0
  3.174999952000e-01  -4.666666780000e-02  0.0
  3.162499964000e-01  -1.050000004500e-01  0.0
  3.499999940000e-01  -7.000000030000e-02  0.0
 -1.071429029000e-01  -1.700000018000e-01  0.0
 -8.571431040000e-02  -1.700000018000e-01  0.0
 -6.428571790000e-02  -1.700000018000e-01  0.0
 -9.857145324000e-02  -1.525000036000e-01  0.0
 -7.714286074000e-02  -1.525000036000e-01  0.0
 -9.000000358000e-02  -1.350000054000e-01  0.0
 -1.312499940000e-01  -2.000000030000e-01  0.0
 -1.191964484500e-01  -1.850000024000e-01  0.0
 -1.071429029000e-01  -1.700000018000e-01  0.0
 -1.406250000000e-01  -1.850000024000e-01  0.0
 -1.285714544500e-01  -1.700000018000e-01  0.0
 -1.500000060000e-01  -1.700000018000e-01  0.0
 -1.220000014000e-01  -1.350000054000e-01  0.0
 -1.060000024900e-01  -1.350000054000e-01  0.0
 -9.000000358000e-02  -1.350000054000e-01  0.0
 -1.185000017500e-01  -1.175000034500e-01  0.0
 -1.025000028400e-01  -1.175000034500e-01  0.0
 -1.150000021000e-01  -1.000000015000e-01  0.0
 -9.000000358000e-02  -1.350000054000e-01  0.0
 -1.060000024900e-01  -1.350000054000e-01  0.0
 -1.220000014000e-01  -1.350000054000e-01  0.0
 -9.857145324000e-02  -1.525000036000e-01  0.0
 -1.145714521500e-01  -1.525000036000e-01  0.0
 -1.071429029000e-01  -1.700000018000e-01  0.0
 -7.778175920000e-02  -9.192386270000e-02  0.0
 -9.639088065000e-02  -9.596193210000e-02  0.0
 -1.150000021000e-01  -1.000000015000e-01  0.0
 -8.389088139000e-02  -1.134619340500e-01  0.0
 -1.025000028400e-01  -1.175000034500e-01  0.0
 -9.000000358000e-02  -1.350000054000e-01  0.0
 -1.220000014000e-01  -1.350000054000e-01  0.0
 -1.185000017500e-01  -1.175000034500e-01  0.0
 -1.150000021000e-01  -1.000000015000e-01  0.0
 -1.360000037000e-01  -1.282143034000e-01  0.0
 -1.325000040500e-01  -1.107143014500e-01  0.0
 -1.500000060000e-01  -1.214286014000e-01  0.0
 -7.778175920000e-02  -9.192386270000e-02  0.0
 -8.389088139000e-02  -1.134619340500e-01  0.0
 -9.000000358000e-02  -1.350000054000e-01  0.0
 -6.639088876500e-02  -1.022535823500e-01  0.0
 -7.250001095500e-02  -1.237916537000e-01  0.0
 -5.500001833000e-02  -1.125833020000e-01  0.0
 -1.071429029000e-01  -1.700000018000e-01  0.0
 -1.145714521500e-01  -1.525000036000e-01  0.0
 -1.220000014000e-01  -1.350000054000e-01  0.0
 -1.285714544500e-01  -1.700000018000e-01  0.0
 -1.360000037000e-01  -1.525000036000e-01  0.0
 -1.500000060000e-01  -1.700000018000e-01  0.0
  6.250000093000e-03  -2.000000030000e-01  0.0
  4.062500153650e-02  -2.000000030000e-01  0.0
  7.500000298000e-02  -2.000000030000e-01  0.0
  1.383928512150e-02  -1.850000024000e-01  0.0
  4.821428656500e-02  -1.850000024000e-01  0.0
  2.142857015000e-02  -1.700000018000e-01  0.0
 -1.500000060000e-01  -7.285714149000e-02  0.0
 -1.500000060000e-01  -9.714287144500e-02  0.0
 -1.500000060000e-01  -1.214286014000e-01  0.0
 -1.325000040500e-01  -8.642857149500e-02  0.0
 -1.325000040500e-01  -1.107143014500e-01  0.0
 -1.150000021000e-01  -1.000000015000e-01  0.0
 -2.000000030000e-01  -6.333333254000e-02  0.0
 -1.750000045000e-01  -6.809523701500e-02  0.0
 -1.500000060000e-01  -7.285714149000e-02  0.0
 -1.750000045000e-01  -4.380952660000e-02  0.0
 -1.500000060000e-01  -4.857143107500e-02  0.0
 -1.500000060000e-01  -2.428572066000e-02  0.0
 -2.000000030000e-01  -6.333333254000e-02  0.0
 -2.000000030000e-01  -8.611111717000e-02  0.0
 -2.000000030000e-01  -1.088889018000e-01  0.0
 -1.750000045000e-01  -6.809523701500e-02  0.0
 -1.750000045000e-01  -9.087302164500e-02  0.0
 -1.500000060000e-01  -7.285714149000e-02  0.0
 -2.000000030000e-01  -6.333333254000e-02  0.0
 -1.750000045000e-01  -4.380952660000e-02  0.0
 -1.500000060000e-01  -2.428572066000e-02  0.0
 -2.000000030000e-01  -4.055555630500e-02  0.0
 -1.750000045000e-01  -2.103175036500e-02  0.0
 -2.000000030000e-01  -1.777778007000e-02  0.0
 -1.500000060000e-01  -2.428572066000e-02  0.0
 -1.500000060000e-01  -4.857143107500e-02  0.0
 -1.500000060000e-01  -7.285714149000e-02  0.0
 -1.281259023000e-01  -2.896608505500e-02  0.0
 -1.281259023000e-01  -5.325179547000e-02  0.0
 -1.062517986000e-01  -3.364644945000e-02  0.0
 -1.099999994000e-01   1.996667010000e-08  0.0
 -1.300000027000e-01  -1.214285034666e-02  0.0
 -1.500000060000e-01  -2.428572066000e-02  0.0
 -1.081258990000e-01  -1.682321474166e-02  0.0
 -1.281259023000e-01  -2.896608505500e-02  0.0
 -1.062517986000e-01  -3.364644945000e-02  0.0
 -1.500000060000e-01  -2.428572066000e-02  0.0
 -1.500000060000e-01   0.000000000000e+00  0.0
 -1.500000060000e-01   2.428572066000e-02  0.0
 -1.750000045000e-01  -2.103175036500e-02  0.0
 -1.750000045000e-01   3.253970295000e-03  0.0
 -2.000000030000e-01  -1.777778007000e-02  0.0
 -1.500000060000e-01  -7.285714149000e-02  0.0
 -1.226314045700e-01  -6.892856210000e-02  0.0
 -9.526280314000e-02  -6.499998271000e-02  0.0
 -1.281259023000e-01  -5.325179547000e-02  0.0
 -1.007573008700e-01  -4.932321608000e-02  0.0
 -1.062517986000e-01  -3.364644945000e-02  0.0
  3.499999940000e-01   1.400000006000e-01  0.0
  4.021931737500e-01   1.224999986500e-01  0.0
  4.543863535000e-01   1.049999967000e-01  0.0
  4.187500029500e-01   1.749999970000e-01  0.0
  4.709431827000e-01   1.574999950500e-01  0.0
  4.875000119000e-01   2.099999934000e-01  0.0
 -7.101409137000e-02  -4.349999130000e-02  0.0
 -8.313844725500e-02  -5.424998700500e-02  0.0
 -9.526280314000e-02  -6.499998271000e-02  0.0
 -6.449843011500e-02  -5.250913650000e-02  0.0
 -7.662278600000e-02  -6.325913220500e-02  0.0
 -5.798276886000e-02  -6.151828170000e-02  0.0
 -9.526280314000e-02  -6.499998271000e-02  0.0
 -1.226314045700e-01  -6.892856210000e-02  0.0
 -1.500000060000e-01  -7.285714149000e-02  0.0
 -1.051314026200e-01  -8.249999210500e-02  0.0
 -1.325000040500e-01  -8.642857149500e-02  0.0
 -1.150000021000e-01  -1.000000015000e-01  0.0
 -6.181925908000e-02  -1.656441018000e-02  0.0
 -7.051259093000e-02  -1.954082492500e-02  0.0
 -7.920592278000e-02  -2.251723967000e-02  0.0
 -5.862244405000e-02  -2.428220026000e-02  0.0
 -6.731577590000e-02  -2.725861500500e-02  0.0
 -5.542562902000e-02  -3.199999034000e-02  0.0
 -7.920592278000e-02  -2.251723967000e-02  0.0
 -9.272886069000e-02  -2.808184456000e-02  0.0
 -1.062517986000e-01  -3.364644945000e-02  0.0
 -7.511000707500e-02  -3.300861548500e-02  0.0
 -8.863294498500e-02  -3.857322037500e-02  0.0
 -7.101409137000e-02  -4.349999130000e-02  0.0
 -7.101409137000e-02  -4.349999130000e-02  0.0
 -6.321986019500e-02  -3.774999082000e-02  0.0
 -5.542562902000e-02  -3.199999034000e-02  0.0
 -7.511000707500e-02  -3.300861548500e-02  0.0
 -6.731577590000e-02  -2.725861500500e-02  0.0
 -7.920592278000e-02  -2.251723967000e-02  0.0
 -7.920592278000e-02  -2.251723967000e-02  0.0
 -9.460296109000e-02  -1.125860985166e-02  0.0
 -1.099999994000e-01   1.996667010000e-08  0.0
 -9.272886069000e-02  -2.808184456000e-02  0.0
 -1.081258990000e-01  -1.682321474166e-02  0.0
 -1.062517986000e-01  -3.364644945000e-02  0.0
 -7.778175920000e-02  -9.192386270000e-02  0.0
 -6.788226403000e-02  -7.672107220000e-02  0.0
 -5.798276886000e-02  -6.151828170000e-02  0.0
 -8.652228117000e-02  -7.846192270500e-02  0.0
 -7.662278600000e-02  -6.325913220500e-02  0.0
 -9.526280314000e-02  -6.499998271000e-02  0.0
 -7.101409137000e-02  -4.349999130000e-02  0.0
 -8.863294498500e-02  -3.857322037500e-02  0.0
 -1.062517986000e-01  -3.364644945000e-02  0.0
 -8.313844725500e-02  -5.424998700500e-02  0.0
 -1.007573008700e-01  -4.932321608000e-02  0.0
 -9.526280314000e-02  -6.499998271000e-02  0.0
 -7.778175920000e-02  -9.192386270000e-02  0.0
 -8.652228117000e-02  -7.846192270500e-02  0.0
 -9.526280314000e-02  -6.499998271000e-02  0.0
 -9.639088065000e-02  -9.596193210000e-02  0.0
 -1.051314026200e-01  -8.249999210500e-02  0.0
 -1.150000021000e-01  -1.000000015000e-01  0.0
[...]
POINT_DATA 2244
SCALARS field1 double 1
LOOKUP_TABLE default
  1.765124112001e-03 
  5.488638126913e-03 
  9.212152141824e-03 
  9.378097878071e-04 
  4.661323802719e-03 
  1.104954636131e-04 
  2.197663251845e-02 
  1.180479802342e-02 
  1.632963528382e-03 
  1.141990721185e-02 
  1.248072716811e-03 
  8.631819052401e-04 
  9.086773827890e-03 
  1.144651118804e-02 
  1.380624854820e-02 
  1.231727179066e-02 
  1.467700915082e-02 
  1.554776975343e-02 
  1.346719270122e-02 
  1.108212475074e-02 
  8.697056800261e-03 
  1.226293605882e-02 
  9.877868108341e-03 
  1.105867941642e-02 
  1.774635871431e-02 
  1.673376153936e-02 
  1.572116436442e-02 
  1.601847476181e-02 
  1.500587758687e-02 
  1.429059080932e-02 
  1.835318215133e-02 
  1.730161555808e-02 
  1.625004896483e-02 
  1.852090814674e-02 
  1.746934155349e-02 
  1.868863414215e-02 
  1.181281001982e-02 
  1.382582446956e-02 
  1.583883891929e-02 
  1.290892554938e-02 
  1.492193999912e-02 
  1.400504107894e-02 
  1.650059588719e-02 
  1.692222557175e-02 
  1.734385525631e-02 
  1.663054537736e-02 
  1.705217506192e-02 
  1.676049486753e-02 
  1.663085018198e-02 
  1.787466879471e-02 
  1.911848740743e-02 
  1.602688220339e-02 
  1.727070081611e-02 
  1.542291422480e-02 
  2.781234129387e-03 
  1.045228088587e-02 
  1.812332764235e-02 
  7.597434147090e-03 
  1.526848090357e-02 
  1.241363416479e-02 
  1.505008215741e-02 
  1.534401624488e-02 
  1.563795033235e-02 
  1.556563772362e-02 
  1.585957181109e-02 
  1.608119328983e-02 
  1.536556625199e-02 
  1.516742082450e-02 
  1.496927539700e-02 
  1.594524982493e-02 
  1.574710439744e-02 
  1.652493339787e-02 
  1.769727837426e-02 
  1.677729537863e-02 
  1.585731238299e-02 
  1.687664390178e-02 
  1.595666090614e-02 
  1.605600942929e-02 
  1.528895328050e-02 
  1.576734747403e-02 
  1.624574166756e-02 
  1.505118565366e-02 
  1.552957984719e-02 
  1.481341802682e-02 
  1.784577162534e-02 
  1.715004045143e-02 
  1.645430927752e-02 
  1.824605319109e-02 
  1.755032201718e-02 
  1.864633475684e-02 
  1.692082419781e-02 
  1.596145348224e-02 
  1.500208276667e-02 
  1.470369256743e-02 
  1.374432185186e-02 
  1.248656093704e-02 
  1.076333062195e-03 
  1.570158228047e-03 
  2.063983393899e-03 
  1.324522261888e-02 
  1.373904778474e-02 
  2.541411217557e-02 
  1.729643997652e-02 
  1.609180975284e-02 
  1.488717952915e-02 
  1.679378041381e-02 
  1.558915019012e-02 
  1.629112085109e-02 
  2.058470147549e-02 
  1.927990628435e-02 
  1.797511109320e-02 
  1.993278612471e-02 
  1.862799093356e-02 
  1.928087077392e-02 
  2.023606578794e-02 
  1.806427250713e-02 
  1.589247922632e-02 
  1.919417733975e-02 
  1.702238405894e-02 
  1.815228889157e-02 
  2.035940455578e-02 
  1.997669747341e-02 
  1.959399039103e-02 
  2.128758579711e-02 
  2.090487871473e-02 
  2.221576703843e-02 
  1.865167757443e-02 
  1.805205035360e-02 
  1.745242313277e-02 
  1.678715444259e-02 
  1.618752722176e-02 
  1.492263131074e-02 
  1.414337122304e-02 
  1.637089472619e-02 
  1.859841822934e-02 
  1.455996079070e-02 
  1.678748429385e-02 
  1.497655035836e-02 
  1.930138172464e-02 
  1.930817217341e-02 
  1.931496262218e-02 
  2.094751669645e-02 
  2.095430714521e-02 
  2.259365166825e-02 
  1.718075050227e-02 
  1.657960362054e-02 
  1.597845673882e-02 
  1.609359557547e-02 
  1.549244869375e-02 
  1.500644064867e-02 
  1.941811635191e-02 
  1.882390259019e-02 
  1.822968882847e-02 
  1.682308031388e-02 
  1.622886655215e-02 
  1.422804427584e-02 
  1.389946964386e-02 
  1.517453202777e-02 
  1.644959441167e-02 
  1.565624188822e-02 
  1.693130427213e-02 
  1.741301413258e-02 
  1.610092014169e-02 
  1.656420338647e-02 
  1.702748663125e-02 
  1.616676228341e-02 
  1.663004552819e-02 
  1.623260442513e-02 
  6.016603783338e-03 
  8.829760733940e-03 
  1.164291768454e-02 
  8.149226108482e-03 
  1.096238305908e-02 
  1.028184843363e-02 
  1.137627252877e-02 
  1.299148573838e-02 
  1.460669894798e-02 
  1.259344755101e-02 
  1.420866076061e-02 
  1.381062257325e-02 
  1.373885556773e-02 
  1.212723934640e-02 
  1.051562312507e-02 
  1.260139589138e-02 
  1.098977967005e-02 
  1.146393621502e-02 
  1.114225667740e-02 
  1.243756086610e-02 
  1.373286505480e-02 
  1.292192749516e-02 
  1.421723168386e-02 
  1.470159831293e-02 
  1.756796876418e-02 
  1.749520894062e-02 
  1.742244911706e-02 
  1.700669258869e-02 
  1.693393276513e-02 
  1.644541641320e-02 
  1.386330913342e-02 
  1.423840026172e-02 
  1.461349139002e-02 
  1.505072587376e-02 
  1.542581700206e-02 
  1.623814261410e-02 
  1.758992073667e-02 
  1.698023907496e-02 
  1.637055741326e-02 
  1.684658071779e-02 
  1.623689905609e-02 
  1.610324069891e-02 
  1.144215474994e-02 
  8.759264870723e-03 
  6.076374991505e-03 
  1.082887099843e-02 
  8.145981119217e-03 
  1.021558724693e-02 
  1.833353739620e-02 
  1.733412954579e-02 
  1.633472169538e-02 
  1.846800442096e-02 
  1.746859657055e-02 
  1.860247144572e-02 
  1.780172764495e-02 
  1.784877265634e-02 
  1.789581766773e-02 
  1.763700565961e-02 
  1.768405067100e-02 
  1.747228367427e-02 
  1.918049723209e-02 
  1.990979279780e-02 
  2.063908836351e-02 
  1.932811773729e-02 
  2.005741330299e-02 
  1.947573824248e-02 
  1.843974586653e-02 
  1.818504414739e-02 
  1.793034242824e-02 
  1.863087153923e-02 
  1.837616982009e-02 
  1.882199721193e-02 
  1.748897040902e-02 
  1.907468613504e-02 
  2.066040186107e-02 
  1.746976061339e-02 
  1.905547633942e-02 
  1.745055081777e-02 
  2.066604059834e-02 
  1.908388311140e-02 
  1.750172562447e-02 
  1.949050565306e-02 
  1.790834816612e-02 
  1.831497070778e-02 
  2.298245804648e-02 
  2.211288972561e-02 
  2.124332140474e-02 
  2.048440492934e-02 
  1.961483660847e-02 
  1.798635181221e-02 
  2.451423732909e-02 
  2.084391437999e-02 
  1.717359143090e-02 
  2.282849953011e-02 
  1.915817658102e-02 
  2.114276173114e-02 
  1.774633648662e-02 
  1.832461044342e-02 
  1.890288440021e-02 
  2.029723312021e-02 
  2.087550707701e-02 
  2.284812975380e-02 
  1.836326473606e-02 
  1.886208275140e-02 
  1.936090076674e-02 
  1.962025450008e-02 
  2.011907251542e-02 
  2.087724426410e-02 
  2.400489324363e-02 
  2.352876503494e-02 
  2.305263682624e-02 
  2.166084740089e-02 
  2.118471919220e-02 
  1.931680155816e-02 
  4.553445584038e-04 
  1.719331944520e-02 
  3.393129433200e-02 
  8.393586762510e-04 
  1.757733356305e-02 
  1.223372794098e-03 
  2.334280741191e-02 
  2.765638291128e-02 
  3.196995841064e-02 
  2.648416957181e-02 
  3.079774507118e-02 
  2.962553173171e-02 
  3.180333089887e-02 
  2.759306320491e-02 
  2.338279551095e-02 
  2.780306205053e-02 
  2.359279435657e-02 
  2.380279320219e-02 
  2.961043252503e-02 
  3.120783508984e-02 
  3.280523765465e-02 
  1.561755959866e-02 
  1.721496216347e-02 
  1.624686672289e-03 
  2.321813042976e-02 
  2.647585256872e-02 
  2.973357470768e-02 
  2.233747802265e-02 
  2.559520016161e-02 
  2.145682561554e-02 
  2.322170973832e-02 
  2.751218713880e-02 
  3.180266453929e-02 
  2.343432746555e-02 
  2.772480486604e-02 
  2.364694519279e-02 
  2.371943277172e-02 
  2.162421874674e-02 
  1.952900472175e-02 
  2.159628326624e-02 
  1.950106924126e-02 
  1.947313376077e-02 
  2.078851989308e-02 
  2.088080225418e-02 
  2.097308461527e-02 
  1.978172267209e-02 
  1.987400503319e-02 
  1.877492545110e-02 
  2.466413971900e-02 
  2.307178545519e-02 
  2.147943119137e-02 
  2.723633771477e-02 
  2.564398345095e-02 
  2.980853571053e-02 
 -1.101224715035e-04 
  5.349254330944e-03 
  1.080863113339e-02 
  3.176528516519e-04 
  5.777029654100e-03 
  7.454281748073e-04 
  1.075122765580e-02 
  1.213073401426e-02 
  1.351024037273e-02 
  1.458247509176e-02 
  1.596198145023e-02 
  1.841372252773e-02 
  2.327439219813e-02 
  1.381852548701e-02 
  4.362658775895e-03 
  1.214865861291e-02 
  2.692791901796e-03 
  1.022925027697e-03 
 -4.616802386357e-04 
  9.641322085665e-04 
  2.389944655769e-03 
  2.634792586032e-03 
  4.060605033235e-03 
  5.731265410701e-03 
  1.618260899896e-04 
 -1.688009598382e-04 
 -4.994280096661e-04 
  5.075649976509e-03 
  4.745022926681e-03 
  9.989473863028e-03 
  1.903823611117e-02 
  1.127175393234e-02 
  3.505271753509e-03 
  1.609555380361e-02 
  8.329071624784e-03 
  1.315287149606e-02 
  1.069291824119e-02 
  1.485557005178e-02 
  1.901822186236e-02 
  5.867265233584e-03 
  1.002991704417e-02 
  1.041612225981e-03 
 -6.426059022796e-04 
  2.552866611197e-03 
  5.748339124673e-03 
  4.657235369358e-03 
  7.852707882835e-03 
  9.957076640996e-03 
  7.120633212573e-04 
  8.324003410102e-04 
  9.527373607631e-04 
  1.565996195065e-02 
  1.578029897040e-02 
  3.060786058004e-02 
  9.068521764772e-04 
  1.737370510463e-02 
  3.384055803279e-02 
  7.829109882948e-04 
  1.724976391645e-02 
  6.589698001125e-04 
  2.329720091731e-02 
  1.480996781194e-02 
  6.322734706579e-03 
  2.120159507631e-02 
  1.271436197095e-02 
  1.910598923531e-02 
  2.336060030693e-04 
  1.017099938112e-02 
  2.010839275917e-02 
  7.480445915531e-04 
  1.068543796960e-02 
  1.262483180037e-03 
  1.773267891796e-03 
  1.324871693856e-02 
  2.472416598532e-02 
  1.588937873450e-02 
  2.736482778126e-02 
  3.000548957721e-02 
  2.161218934657e-02 
  1.283532063762e-02 
  4.058451928677e-03 
  2.173911064395e-02 
  1.296224193501e-02 
  2.186603194134e-02 
  1.953002530938e-02 
  1.048247805226e-02 
  1.434930795133e-03 
  1.050305760100e-02 
  1.455510343877e-03 
  1.476089892620e-03 
  2.068394710805e-03 
  1.082202759006e-02 
  1.957566046931e-02 
  1.329325408706e-02 
  2.204688696631e-02 
  2.451811346332e-02 
  1.897337306849e-02 
  1.810783339758e-02 
  1.724229372667e-02 
  2.172039615570e-02 
  2.085485648479e-02 
  2.446741924292e-02 
  2.089423467799e-02 
  1.247740389291e-02 
  4.060573107828e-03 
  2.105615124930e-02 
  1.263932046422e-02 
  2.121806782062e-02 
  2.367532615911e-02 
  2.149939651652e-02 
  1.932346687393e-02 
  2.149486763121e-02 
  1.931893798862e-02 
  1.931440910331e-02 
  1.841050938079e-02 
  1.595441700715e-02 
  1.349832463351e-02 
  1.789553799674e-02 
  1.543944562310e-02 
  1.738056661269e-02 
  7.766218324131e-04 
  1.537908042489e-03 
  2.299194252564e-03 
  1.172194596689e-02 
  1.248323217696e-02 
  2.266727010136e-02 
  2.126249534375e-03 
  9.509718629695e-04 
 -2.243058084363e-04 
  9.883174905505e-04 
 -1.869601808553e-04 
 -1.496145532743e-04 
  1.820448876319e-02 
  1.840493775705e-02 
  1.860538675091e-02 
  1.654824158339e-02 
  1.674869057725e-02 
  1.489199440358e-02 
  1.949643618323e-02 
  2.081664905615e-02 
  2.213686192906e-02 
  2.093238151039e-02 
  2.225259438330e-02 
  2.236832683755e-02 
  2.209152432377e-02 
  2.069775547217e-02 
  1.930398662056e-02 
  2.123390032455e-02 
  1.984013147295e-02 
  2.037627632534e-02 
  1.898843320163e-02 
  2.063069377423e-02 
  2.227295434683e-02 
  1.909092808461e-02 
  2.073318865721e-02 
  1.919342296759e-02 
  2.051024616220e-02 
  1.989622581346e-02 
  1.928220546472e-02 
  1.831958660269e-02 
  1.770556625395e-02 
  1.612892704318e-02 
  1.015299970057e-02 
  9.450086425176e-03 
  8.747173149780e-03 
  1.742731107480e-02 
  1.672439779941e-02 
  2.470162244904e-02 
  1.856280692425e-02 
  1.637887146644e-02 
  1.419493600863e-02 
  1.677591052116e-02 
  1.459197506335e-02 
  1.498901411807e-02 
  1.855944633776e-02 
  1.855982897782e-02 
  1.856021161789e-02 
  1.629421291082e-02 
  1.629459555088e-02 
  1.402897948387e-02 
  1.094574385301e-02 
  1.283634552737e-02 
  1.472694720172e-02 
  1.239425696170e-02 
  1.428485863606e-02 
  1.384277007039e-02 
  1.482040646579e-02 
  1.291579185478e-02 
  1.101117724377e-02 
  1.288945931368e-02 
  1.098484470266e-02 
  1.095851216156e-02 
  1.458765370112e-02 
  1.452314380854e-02 
  1.445863391595e-02 
  1.518720895454e-02 
  1.512269906196e-02 
  1.578676420796e-02 
  1.449249372326e-02 
  1.451937616581e-02 
  1.454625860835e-02 
  1.281665417896e-02 
  1.284353662150e-02 
  1.114081463465e-02 
  1.782529957031e-02 
  1.679487093544e-02 
  1.576444230058e-02 
  1.800991328531e-02 
  1.697948465044e-02 
  1.819452700031e-02 
  1.501269140941e-02 
  1.543733465146e-02 
  1.586197789350e-02 
  1.648721039964e-02 
  1.691185364169e-02 
  1.796172938988e-02 
  1.103684159146e-02 
  1.059938737278e-02 
  1.016193315410e-02 
  8.597166151719e-03 
  8.159711933039e-03 
  6.157490711980e-03 
  1.097737151579e-02 
  1.236982275754e-02 
  1.376227399929e-02 
  1.062116925763e-02 
  1.201362049938e-02 
  1.026496699947e-02 
  1.366782890138e-02 
  1.243848798069e-02 
  1.120914706000e-02 
  1.198882125208e-02 
  1.075948033139e-02 
  1.030981360277e-02 
  1.775200043998e-02 
  1.687094429284e-02 
  1.598988814569e-02 
  1.738560205423e-02 
  1.650454590709e-02 
  1.701920366849e-02 
  1.565569967513e-02 
  1.517832247486e-02 
  1.470094527460e-02 
  1.236270776886e-02 
  1.188533056860e-02 
  9.069715862596e-03 
  1.592266966368e-02 
  1.724289218231e-02 
  1.856311470093e-02 
  1.543452819941e-02 
  1.675475071804e-02 
  1.494638673515e-02 
  8.412789390900e-03 
  1.073898509636e-02 
  1.306518080183e-02 
  4.790012893542e-03 
  7.116208599007e-03 
  1.167236396185e-03 
  1.215004175937e-02 
  1.035378409573e-02 
  8.557526432087e-03 
  1.334888019376e-02 
  1.155262253012e-02 
  1.454771862815e-02 
  2.196004134636e-02 
  1.245952816508e-02 
  2.959014983800e-03 
  1.161600230773e-02 
  2.115489126447e-03 
  1.271963269094e-03 
  7.124138749064e-03 
  5.903810397415e-03 
  4.683482045766e-03 
  1.585697244803e-02 
  1.463664409638e-02 
  2.458980614699e-02 
  1.544537919127e-02 
  1.592844363395e-02 
  1.641150807663e-02 
  1.406884904970e-02 
  1.455191349238e-02 
  1.269231890812e-02 
  2.346334797588e-02 
  1.321002956641e-02 
  2.956711156929e-03 
  1.466011762608e-02 
  4.406799216600e-03 
  5.856887276271e-03 
  1.671442935797e-02 
  1.727148814503e-02 
  1.782854693209e-02 
  1.659894617151e-02 
  1.715600495858e-02 
  1.648346298506e-02 
  1.773195273471e-02 
  1.734366501484e-02 
  1.695537729498e-02 
  1.692312398392e-02 
  1.653483626406e-02 
  1.611429523314e-02 
  1.493353504607e-02 
  1.556543738225e-02 
  1.619733971844e-02 
  1.628501536953e-02 
  1.691691770571e-02 
  1.763649569299e-02 
  1.607980101994e-02 
  1.581998070559e-02 
  1.556016039124e-02 
  1.652949372538e-02 
  1.626967341104e-02 
  1.697918643083e-02 
  1.855516099737e-02 
  1.737113920691e-02 
  1.618711741645e-02 
  1.883885030896e-02 
  1.765482851850e-02 
  1.912253962055e-02 
  1.517135715118e-02 
  1.630913556891e-02 
  1.744691398664e-02 
  1.415607388031e-02 
  1.529385229804e-02 
  1.314079060944e-02 
  1.795944922884e-02 
  1.852998347223e-02 
  1.910051771562e-02 
  1.738719520094e-02 
  1.795772944434e-02 
  1.681494117305e-02 
  1.719859581151e-02 
  1.663947906641e-02 
  1.608036232131e-02 
  1.665835845124e-02 
  1.609924170614e-02 
  1.611812109097e-02 
  1.792047625992e-02 
  1.758048440251e-02 
  1.724049254509e-02 
  1.691552225314e-02 
  1.657553039572e-02 
  1.591056824635e-02 
  2.004269039550e-02 
  1.966192966271e-02 
  1.928116892992e-02 
  1.297346277455e-02 
  1.259270204176e-02 
  5.904235153606e-03 
  1.568031703372e-02 
  1.523742700998e-02 
  1.479453698624e-02 
  1.697972711498e-02 
  1.653683709124e-02 
  1.827913719624e-02 
  1.655378842770e-02 
  1.784932187679e-02 
  1.914485532588e-02 
  1.763349300593e-02 
  1.892902645502e-02 
  1.871319758415e-02 
  2.359096180505e-03 
  1.077599265865e-03 
 -2.038976487738e-04 
  4.202419159642e-03 
  2.920922245003e-03 
  6.045742138780e-03 
  2.140488518085e-03 
  9.715546020243e-04 
 -1.973793140363e-04 
  1.019620349255e-03 
 -1.493135668055e-04 
 -1.012478195747e-04 
  6.099778948757e-03 
  3.156784040938e-03 
  2.137891331191e-04 
  8.340030429974e-03 
  5.397035522155e-03 
  1.058028191119e-02 
  1.687086558513e-02 
  1.381341977360e-02 
  1.075597396207e-02 
  8.455845483828e-03 
  5.398399672297e-03 
  4.082538252111e-05 
  1.729691780363e-02 
  1.790542079415e-02 
  1.851392378466e-02 
  1.612034995374e-02 
  1.672885294425e-02 
  1.494378210384e-02 
  1.710059014657e-02 
  1.609677651103e-02 
  1.509296287549e-02 
  1.403049416310e-02 
  1.302668052756e-02 
  1.096039817962e-02 
  1.908733158394e-04 
  3.148447646430e-03 
  6.106021977021e-03 
  3.004576182194e-05 
  2.987620092413e-03 
 -1.307817921955e-04 
  1.113629750244e-02 
  8.659306635114e-03 
  6.182315767785e-03 
  1.094893736302e-02 
  8.471946495688e-03 
  1.076157722359e-02 
 -1.685933235417e-05 
  2.149101266768e-04 
  4.466795857078e-04 
  8.501030760684e-03 
  8.732800219715e-03 
  1.701892085372e-02 
  2.365668527414e-02 
  1.395474654449e-02 
  4.252807814853e-03 
  2.171708408317e-02 
  1.201514535353e-02 
  1.977748289221e-02 
  1.880515522955e-02 
  1.819203232895e-02 
  1.757890942835e-02 
  1.856538723985e-02 
  1.795226433925e-02 
  1.832561925015e-02 
  8.990892880069e-03 
  5.572498295751e-03 
  2.154103711434e-03 
  1.011943605986e-02 
  6.701041475546e-03 
  1.124797923966e-02 
  2.665860189567e-02 
  1.352430615134e-02 
  3.900104070073e-04 
  1.394717442511e-02 
  8.128786807829e-04 
  1.235746954559e-03 
  2.583851762662e-02 
  1.297300057841e-02 
  1.074835301911e-04 
  1.323605069021e-02 
  3.705336419981e-04 
  6.335837538052e-04 
  2.070486452072e-02 
  1.194096427944e-02 
  3.177064038166e-03 
  1.918011667436e-02 
  1.041621643309e-02 
  1.765536882801e-02 
  1.687791280862e-02 
  8.693885709854e-03 
  5.098586110853e-04 
  2.098900055751e-02 
  1.280497345874e-02 
  2.510008830639e-02 
  1.509208916957e-02 
  1.684296336802e-02 
  1.859383756647e-02 
  1.644441474389e-02 
  1.819528894234e-02 
  1.779674031821e-02 
  3.201156038141e-02 
  1.632353564077e-02 
  6.355109001325e-04 
  1.676284528030e-02 
  1.074820539658e-03 
  1.514130179184e-03 
  1.846129333024e-02 
  2.162162191239e-02 
  2.478195049454e-02 
  1.954831188431e-02 
  2.270864046647e-02 
  2.063533043839e-02 
  2.467267882596e-02 
  2.162629486231e-02 
  1.857991089867e-02 
  2.095326225494e-02 
  1.790687829130e-02 
  1.723384568393e-02 
  1.887702116545e-02 
  1.862181190898e-02 
  1.836660265251e-02 
  1.876353513123e-02 
  1.850832587476e-02 
  1.865004909701e-02 
  1.847505585916e-02 
  1.769211090854e-02 
  1.690916595793e-02 
  1.863587779423e-02 
  1.785293284361e-02 
  1.879669972930e-02 
  1.904541745852e-02 
  1.845307226753e-02 
  1.786072707655e-02 
  1.983002925649e-02 
  1.923768406550e-02 
  2.061464105445e-02 
  2.083810348879e-02 
  2.198871845415e-02 
  2.313933341952e-02 
  1.991672423597e-02 
  2.106733920133e-02 
  1.899534498314e-02 
  2.036372596230e-02 
  2.278424353691e-02 
  2.520476111152e-02 
  2.520072071164e-02 
  2.762123828624e-02 
  3.003771546097e-02 
  1.840520567171e-02 
  1.953521432617e-02 
  2.066522298063e-02 
  1.813199941168e-02 
  1.926200806614e-02 
  1.785879315166e-02 
  3.060043940161e-02 
  3.096772483165e-02 
  3.133501026170e-02 
  2.705313625592e-02 
  2.742042168596e-02 
  2.350583311023e-02 
  3.052530344832e-02 
  2.821031163497e-02 
  2.589531982163e-02 
  1.623502656447e-02 
  1.392003475113e-02 
  1.944749680625e-03 
  1.984596366925e-02 
  2.148730187797e-02 
  2.312864008670e-02 
  2.193299091623e-02 
  2.357432912495e-02 
  2.402001816320e-02 
  2.305760901855e-02 
  2.127328883458e-02 
  1.948896865062e-02 
  2.091149706861e-02 
  1.912717688465e-02 
  1.876538511868e-02 
  2.065341730393e-02 
  2.018549684345e-02 
  1.971757638298e-02 
  1.996758794565e-02 
  1.949966748517e-02 
  1.928175858737e-02 
  1.880458235735e-02 
  2.008691845635e-02 
  2.136925455535e-02 
  1.870268849091e-02 
  1.998502458991e-02 
  1.860079462446e-02 
  2.372477253225e-02 
  2.359612968741e-02 
  2.346748684256e-02 
  2.743016965011e-02 
  2.730152680527e-02 
  3.113556676797e-02 
  3.005281137010e-02 
  2.673210441737e-02 
  2.341139746464e-02 
  2.520351846570e-02 
  2.188281151297e-02 
  2.035422556131e-02 
  2.642215486383e-03 
  1.702950376074e-02 
  3.141679203510e-02 
  1.695111863207e-02 
  3.133840690643e-02 
  3.126002177777e-02 