# vtk DataFile Version 2
NuDG++ 2D simulation
ASCII
DATASET UNSTRUCTURED_GRID

POINTS 2244 double
 -1.656250060000e-01  -2.000000030000e-01  0.0
 -1.828125045000e-01  -1.772221997500e-01  0.0
 -2.000000030000e-01  -1.544443965000e-01  0.0
 -1.828125045000e-01  -2.000000030000e-01  0.0
 -2.000000030000e-01  -1.772221997500e-01  0.0
 -2.000000030000e-01  -2.000000030000e-01  0.0
 -6.428571790000e-02  -1.700000018000e-01  0.0
 -8.058035746000e-02  -1.850000024000e-01  0.0
 -9.687499702000e-02  -2.000000030000e-01  0.0
 -6.339285895000e-02  -1.850000024000e-01  0.0
 -7.968749851000e-02  -2.000000030000e-01  0.0
 -6.250000000000e-02  -2.000000030000e-01  0.0
 -2.000000030000e-01  -1.544443965000e-01  0.0
 -1.750000045000e-01  -1.379364989500e-01  0.0
 -1.500000060000e-01  -1.214286014000e-01  0.0
 -2.000000030000e-01  -1.316666491500e-01  0.0
 -1.750000045000e-01  -1.151587516000e-01  0.0
 -2.000000030000e-01  -1.088889018000e-01  0.0
 -1.500000060000e-01  -1.214286014000e-01  0.0
 -1.750000045000e-01  -1.379364989500e-01  0.0
 -2.000000030000e-01  -1.544443965000e-01  0.0
 -1.500000060000e-01  -1.457143016000e-01  0.0
 -1.750000045000e-01  -1.622221991500e-01  0.0
 -1.500000060000e-01  -1.700000018000e-01  0.0
 -1.500000060000e-01  -7.285714149000e-02  0.0
 -1.750000045000e-01  -9.087302164500e-02  0.0
 -2.000000030000e-01  -1.088889018000e-01  0.0
 -1.500000060000e-01  -9.714287144500e-02  0.0
 -1.750000045000e-01  -1.151587516000e-01  0.0
 -1.500000060000e-01  -1.214286014000e-01  0.0
  1.832975030000e+00  -4.625000060000e-02  0.0
  1.853987515000e+00  -1.231250018000e-01  0.0
  1.875000000000e+00  -2.000000030000e-01  0.0
  1.916487515000e+00  -7.187499851000e-02  0.0
  1.937500000000e+00  -1.487499997100e-01  0.0
  2.000000000000e+00  -9.749999642000e-02  0.0
 -1.500000060000e-01  -1.700000018000e-01  0.0
 -1.360000037000e-01  -1.525000036000e-01  0.0
 -1.220000014000e-01  -1.350000054000e-01  0.0
 -1.500000060000e-01  -1.457143016000e-01  0.0
 -1.360000037000e-01  -1.282143034000e-01  0.0
 -1.500000060000e-01  -1.214286014000e-01  0.0
  2.849999964000e-01  -2.333333530000e-02  0.0
  2.837499976000e-01  -8.166666795000e-02  0.0
  2.824999988000e-01  -1.400000006000e-01  0.0
  3.174999952000e-01  -4.666666780000e-02  0.0
  3.162499964000e-01  -1.050000004500e-01  0.0
  3.499999940000e-01  -7.000000030000e-02  0.0
 -1.071429029000e-01  -1.700000018000e-01  0.0
 -8.571431040000e-02  -1.700000018000e-01  0.0
 -6.428571790000e-02  -1.700000018000e-01  0.0
 -9.857145324000e-02  -1.525000036000e-01  0.0
 -7.714286074000e-02  -1.525000036000e-01  0.0
 -9.000000358000e-02  -1.350000054000e-01  0.0
 -1.312499940000e-01  -2.000000030000e-01  0.0
 -1.191964484500e-01  -1.850000024000e-01  0.0
 -1.071429029000e-01  -1.700000018000e-01  0.0
 -1.406250000000e-01  -1.850000024000e-01  0.0
 -1.285714544500e-01  -1.700000018000e-01  0.0
 -1.500000060000e-01  -1.700000018000e-01  0.0
 -1.220000014000e-01  -1.350000054000e-01  0.0
 -1.060000024900e-01  -1.350000054000e-01  0.0
 -9.000000358000e-02  -1.350000054000e-01  0.0
 -1.185000017500e-01  -1.175000034500e-01  0.0
 -1.025000028400e-01  -1.175000034500e-01  0.0
 -1.150000021000e-01  -1.000000015000e-01  0.0
 -9.000000358000e-02  -1.350000054000e-01  0.0
 -1.060000024900e-01  -1.350000054000e-01  0.0
 -1.220000014000e-01  -1.350000054000e-01  0.0
 -9.857145324000e-02  -1.525000036000e-01  0.0
 -1.145714521500e-01  -1.525000036000e-01  0.0
 -1.071429029000e-01  -1.700000018000e-01  0.0
 -7.778175920000e-02  -9.192386270000e-02  0.0
 -9.639088065000e-02  -9.596193210000e-02  0.0
 -1.150000021000e-01  -1.000000015000e-01  0.0
 -8.389088139000e-02  -1.134619340500e-01  0.0
 -1.025000028400e-01  -1.175000034500e-01  0.0
 -9.000000358000e-02  -1.350000054000e-01  0.0
 -1.220000014000e-01  -1.350000054000e-01  0.0
 -1.185000017500e-01  -1.175000034500e-01  0.0
 -1.150000021000e-01  -1.000000015000e-01  0.0
 -1.360000037000e-01  -1.282143034000e-01  0.0
 -1.325000040500e-01  -1.107143014500e-01  0.0
 -1.500000060000e-01  -1.214286014000e-01  0.0
 -7.778175920000e-02  -9.192386270000e-02  0.0
 -8.389088139000e-02  -1.134619340500e-01  0.0
 -9.000000358000e-02  -1.350000054000e-01  0.0
 -6.639088876500e-02  -1.022535823500e-01  0.0
 -7.250001095500e-02  -1.237916537000e-01  0.0
 -5.500001833000e-02  -1.125833020000e-01  0.0
 -1.071429029000e-01  -1.700000018000e-01  0.0
 -1.145714521500e-01  -1.525000036000e-01  0.0
 -1.220000014000e-01  -1.350000054000e-01  0.0
 -1.285714544500e-01  -1.700000018000e-01  0.0
 -1.360000037000e-01  -1.525000036000e-01  0.0
 -1.500000060000e-01  -1.700000018000e-01  0.0
  6.250000093000e-03  -2.000000030000e-01  0.0
  4.062500153650e-02  -2.000000030000e-01  0.0
  7.500000298000e-02  -2.000000030000e-01  0.0
  1.383928512150e-02  -1.850000024000e-01  0.0
  4.821428656500e-02  -1.850000024000e-01  0.0
  2.142857015000e-02  -1.700000018000e-01  0.0
 -1.500000060000e-01  -7.285714149000e-02  0.0
 -1.500000060000e-01  -9.714287144500e-02  0.0
 -1.500000060000e-01  -1.214286014000e-01  0.0
 -1.325000040500e-01  -8.642857149500e-02  0.0
 -1.325000040500e-01  -1.107143014500e-01  0.0
 -1.150000021000e-01  -1.000000015000e-01  0.0
 -2.000000030000e-01  -6.333333254000e-02  0.0
 -1.750000045000e-01  -6.809523701500e-02  0.0
 -1.500000060000e-01  -7.285714149000e-02  0.0
 -1.750000045000e-01  -4.380952660000e-02  0.0
 -1.500000060000e-01  -4.857143107500e-02  0.0
 -1.500000060000e-01  -2.428572066000e-02  0.0
 -2.000000030000e-01  -6.333333254000e-02  0.0
 -2.000000030000e-01  -8.611111717000e-02  0.0
 -2.000000030000e-01  -1.088889018000e-01  0.0
 -1.750000045000e-01  -6.809523701500e-02  0.0
 -1.750000045000e-01  -9.087302164500e-02  0.0
 -1.500000060000e-01  -7.285714149000e-02  0.0
 -2.000000030000e-01  -6.333333254000e-02  0.0
 -1.750000045000e-01  -4.380952660000e-02  0.0
 -1.500000060000e-01  -2.428572066000e-02  0.0
 -2.000000030000e-01  -4.055555630500e-02  0.0
 -1.750000045000e-01  -2.103175036500e-02  0.0
 -2.000000030000e-01  -1.777778007000e-02  0.0
 -1.500000060000e-01  -2.428572066000e-02  0.0
 -1.500000060000e-01  -4.857143107500e-02  0.0
 -1.500000060000e-01  -7.285714149000e-02  0.0
 -1.281259023000e-01  -2.896608505500e-02  0.0
 -1.281259023000e-01  -5.325179547000e-02  0.0
 -1.062517986000e-01  -3.364644945000e-02  0.0
 -1.099999994000e-01   1.996667010000e-08  0.0
 -1.300000027000e-01  -1.214285034666e-02  0.0
 -1.500000060000e-01  -2.428572066000e-02  0.0
 -1.081258990000e-01  -1.682321474166e-02  0.0
 -1.281259023000e-01  -2.896608505500e-02  0.0
 -1.062517986000e-01  -3.364644945000e-02  0.0
 -1.500000060000e-01  -2.428572066000e-02  0.0
 -1.500000060000e-01   0.000000000000e+00  0.0
 -1.500000060000e-01   2.428572066000e-02  0.0
 -1.750000045000e-01  -2.103175036500e-02  0.0
 -1.750000045000e-01   3.253970295000e-03  0.0
 -2.000000030000e-01  -1.777778007000e-02  0.0
 -1.500000060000e-01  -7.285714149000e-02  0.0
 -1.226314045700e-01  -6.892856210000e-02  0.0
 -9.526280314000e-02  -6.499998271000e-02  0.0
 -1.281259023000e-01  -5.325179547000e-02  0.0
 -1.007573008700e-01  -4.932321608000e-02  0.0
 -1.062517986000e-01  -3.364644945000e-02  0.0
  3.499999940000e-01   1.400000006000e-01  0.0
  4.021931737500e-01   1.224999986500e-01  0.0
  4.543863535000e-01   1.049999967000e-01  0.0
  4.187500029500e-01   1.749999970000e-01  0.0
  4.709431827000e-01   1.574999950500e-01  0.0
  4.875000119000e-01   2.099999934000e-01  0.0
 -7.101409137000e-02  -4.349999130000e-02  0.0
 -8.313844725500e-02  -5.424998700500e-02  0.0
 -9.526280314000e-02  -6.499998271000e-02  0.0
 -6.449843011500e-02  -5.250913650000e-02  0.0
 -7.662278600000e-02  -6.325913220500e-02  0.0
 -5.798276886000e-02  -6.151828170000e-02  0.0
 -9.526280314000e-02  -6.499998271000e-02  0.0
 -1.226314045700e-01  -6.892856210000e-02  0.0
 -1.500000060000e-01  -7.285714149000e-02  0.0
 -1.051314026200e-01  -8.249999210500e-02  0.0
 -1.325000040500e-01  -8.642857149500e-02  0.0
 -1.150000021000e-01  -1.000000015000e-01  0.0
 -6.181925908000e-02  -1.656441018000e-02  0.0
 -7.051259093000e-02  -1.954082492500e-02  0.0
 -7.920592278000e-02  -2.251723967000e-02  0.0
 -5.862244405000e-02  -2.428220026000e-02  0.0
 -6.731577590000e-02  -2.725861500500e-02  0.0
 -5.542562902000e-02  -3.199999034000e-02  0.0
 -7.920592278000e-02  -2.251723967000e-02  0.0
 -9.272886069000e-02  -2.808184456000e-02  0.0
 -1.062517986000e-01  -3.364644945000e-02  0.0
 -7.511000707500e-02  -3.300861548500e-02  0.0
 -8.863294498500e-02  -3.857322037500e-02  0.0
 -7.101409137000e-02  -4.349999130000e-02  0.0
 -7.101409137000e-02  -4.349999130000e-02  0.0
 -6.321986019500e-02  -3.774999082000e-02  0.0
 -5.542562902000e-02  -3.199999034000e-02  0.0
 -7.511000707500e-02  -3.300861548500e-02  0.0
 -6.731577590000e-02  -2.725861500500e-02  0.0
 -7.920592278000e-02  -2.251723967000e-02  0.0
 -7.920592278000e-02  -2.251723967000e-02  0.0
 -9.460296109000e-02  -1.125860985166e-02  0.0
 -1.099999994000e-01   1.996667010000e-08  0.0
 -9.272886069000e-02  -2.808184456000e-02  0.0
 -1.081258990000e-01  -1.682321474166e-02  0.0
 -1.062517986000e-01  -3.364644945000e-02  0.0
 -7.778175920000e-02  -9.192386270000e-02  0.0
 -6.788226403000e-02  -7.672107220000e-02  0.0
 -5.798276886000e-02  -6.151828170000e-02  0.0
 -8.652228117000e-02  -7.846192270500e-02  0.0
 -7.662278600000e-02  -6.325913220500e-02  0.0
 -9.526280314000e-02  -6.499998271000e-02  0.0
 -7.101409137000e-02  -4.349999130000e-02  0.0
 -8.863294498500e-02  -3.857322037500e-02  0.0
 -1.062517986000e-01  -3.364644945000e-02  0.0
 -8.313844725500e-02  -5.424998700500e-02  0.0
 -1.007573008700e-01  -4.932321608000e-02  0.0
 -9.526280314000e-02  -6.499998271000e-02  0.0
 -7.778175920000e-02  -9.192386270000e-02  0.0
 -8.652228117000e-02  -7.846192270500e-02  0.0
 -9.526280314000e-02  -6.499998271000e-02  0.0
 -9.639088065000e-02  -9.596193210000e-02  0.0
 -1.051314026200e-01  -8.249999210500e-02  0.0
 -1.150000021000e-01  -1.000000015000e-01  0.0
[...]
POINT_DATA 2244
SCALARS field1 double 1
LOOKUP_TABLE default
 -5.646292871118e+02 
 -5.237681732178e+02 
 -4.829070593237e+02 
 -4.361779068813e+02 
 -3.953167929872e+02 
 -3.077265266507e+02 
 -4.281552846244e+03 
 -3.419531897423e+03 
 -2.557510948601e+03 
 -3.499784807805e+03 
 -2.637763858984e+03 
 -2.718016769366e+03 
 -6.316241506634e+02 
 -6.937645657878e+02 
 -7.559049809122e+02 
 -6.320090371403e+02 
 -6.941494522647e+02 
 -6.323939236173e+02 
 -6.378529517419e+02 
 -5.584508647301e+02 
 -4.790487777184e+02 
 -6.513316357444e+02 
 -5.719295487327e+02 
 -6.648103197470e+02 
 -5.670204097576e+02 
 -4.953016426847e+02 
 -4.235828756119e+02 
 -5.774500385507e+02 
 -5.057312714779e+02 
 -5.878796673438e+02 
  5.514679212264e+09 
  5.062646011863e+09 
  4.610612811462e+09 
  5.483932699124e+09 
  5.031899498723e+09 
  5.453186185984e+09 
 -1.676562413965e+03 
 -1.822741026089e+03 
 -1.968919638214e+03 
 -1.637585440931e+03 
 -1.783764053056e+03 
 -1.598608467898e+03 
 -3.819128727904e+04 
 -3.978174506010e+04 
 -4.137220284116e+04 
 -3.956076340120e+04 
 -4.115122118226e+04 
 -4.093023952337e+04 
 -3.200595964916e+03 
 -3.284243797939e+03 
 -3.367891630963e+03 
 -3.194052216372e+03 
 -3.277700049395e+03 
 -3.187508467828e+03 
 -1.854935650345e+03 
 -1.975469424320e+03 
 -2.096003198295e+03 
 -1.850421850334e+03 
 -1.970955624309e+03 
 -1.845908050324e+03 
 -2.361818589481e+03 
 -2.486397747831e+03 
 -2.610976906180e+03 
 -2.362671834429e+03 
 -2.487250992779e+03 
 -2.363525079378e+03 
 -2.658178295684e+03 
 -2.492219350850e+03 
 -2.326260406016e+03 
 -2.592998816307e+03 
 -2.427039871473e+03 
 -2.527819336930e+03 
 -2.688555689037e+03 
 -2.526971220662e+03 
 -2.365386752287e+03 
 -2.657819863128e+03 
 -2.496235394753e+03 
 -2.627084037219e+03 
 -1.592414247297e+03 
 -1.596238497182e+03 
 -1.600062747066e+03 
 -1.501138482684e+03 
 -1.504962732569e+03 
 -1.409862718071e+03 
 -3.692707587543e+03 
 -3.631359292073e+03 
 -3.570010996603e+03 
 -3.801116545271e+03 
 -3.739768249801e+03 
 -3.909525502999e+03 
 -2.020715579306e+03 
 -1.997887973098e+03 
 -1.975060366890e+03 
 -1.939490311192e+03 
 -1.916662704984e+03 
 -1.858265043078e+03 
 -6.599267227985e+03 
 -6.738662255293e+03 
 -6.878057282601e+03 
 -8.559481142301e+03 
 -8.698876169609e+03 
 -1.051969505662e+04 
 -1.598807828238e+03 
 -1.596275371433e+03 
 -1.593742914628e+03 
 -1.696027399124e+03 
 -1.693494942319e+03 
 -1.793246970009e+03 
 -3.129148758642e+02 
 -3.620597393182e+02 
 -4.112046027723e+02 
 -3.362090756764e+02 
 -3.853539391304e+02 
 -3.595032754885e+02 
 -4.538951235979e+02 
 -4.603007039267e+02 
 -4.667062842554e+02 
 -5.062648678819e+02 
 -5.126704482106e+02 
 -5.586346121659e+02 
 -1.962697132274e+02 
 -2.131178346265e+02 
 -2.299659560257e+02 
 -1.791602167071e+02 
 -1.960083381063e+02 
 -1.620507201869e+02 
 -8.114613449180e+02 
 -9.008850869639e+02 
 -9.903088290099e+02 
 -9.215476422632e+02 
 -1.010971384309e+03 
 -1.031633939608e+03 
 -5.590233221771e+02 
 -5.571553034176e+02 
 -5.552872846582e+02 
 -6.791109227393e+02 
 -6.772429039799e+02 
 -7.991985233016e+02 
 -1.438050580839e+02 
 -1.103171649893e+02 
 -7.682927189473e+01 
 -1.215294191468e+02 
 -8.804152605219e+01 
 -9.925378020964e+01 
 -1.486906508255e+03 
 -1.613331858107e+03 
 -1.739757207959e+03 
 -1.540042479350e+03 
 -1.666467829203e+03 
 -1.593178450446e+03 
  1.278279687992e+05 
  1.263379419470e+05 
  1.248479150948e+05 
  1.286899704313e+05 
  1.271999435791e+05 
  1.295519720634e+05 
 -3.100608606047e+03 
 -2.990608704550e+03 
 -2.880608803052e+03 
 -3.271689884229e+03 
 -3.161689982731e+03 
 -3.442771162410e+03 
 -1.589867939044e+03 
 -1.486670024162e+03 
 -1.383472109281e+03 
 -1.585320794700e+03 
 -1.482122879819e+03 
 -1.580773650356e+03 
 -1.707861739954e+03 
 -1.853236647776e+03 
 -1.998611555599e+03 
 -2.327277821328e+03 
 -2.472652729151e+03 
 -2.946693902703e+03 
 -1.618336205399e+03 
 -1.594297676091e+03 
 -1.570259146784e+03 
 -1.875175777315e+03 
 -1.851137248008e+03 
 -2.132015349231e+03 
 -2.948803877997e+03 
 -3.107266630342e+03 
 -3.265729382686e+03 
 -2.590621694676e+03 
 -2.749084447021e+03 
 -2.232439511356e+03 
 -1.144697046071e+03 
 -9.762219097708e+02 
 -8.077467734709e+02 
 -1.240007520869e+03 
 -1.071532384569e+03 
 -1.335317995668e+03 
 -3.145284639562e+03 
 -3.218059777229e+03 
 -3.290834914897e+03 
 -3.005365561382e+03 
 -3.078140699049e+03 
 -2.865446483202e+03 
 -2.368705503014e+03 
 -2.142747460205e+03 
 -1.916789417397e+03 
 -2.354430948863e+03 
 -2.128472906054e+03 
 -2.340156394712e+03 
 -2.925457760309e+03 
 -2.778378451075e+03 
 -2.631299141841e+03 
 -2.724323953709e+03 
 -2.577244644475e+03 
 -2.523190147109e+03 
 -1.639528163227e+03 
 -1.609246201147e+03 
 -1.578964239068e+03 
 -1.152532488640e+03 
 -1.122250526560e+03 
 -6.655368140530e+02 
 -3.427106779314e+03 
 -3.260180789751e+03 
 -3.093254800188e+03 
 -3.383700658503e+03 
 -3.216774668940e+03 
 -3.340294537692e+03 
  5.371581983615e+09 
  5.646762073298e+09 
  5.921942162981e+09 
  5.278176863730e+09 
  5.553356953413e+09 
  5.184771743845e+09 
 -5.114792061189e+03 
 -5.274680668837e+03 
 -5.434569276485e+03 
 -5.356786471063e+03 
 -5.516675078711e+03 
 -5.598780880937e+03 
 -4.769800012397e+03 
 -4.593622091196e+03 
 -4.417444169994e+03 
 -4.609364815100e+03 
 -4.433186893898e+03 
 -4.448929617802e+03 
 -3.761710552851e+03 
 -4.009820496497e+03 
 -4.257930440142e+03 
 -3.915985030555e+03 
 -4.164094974200e+03 
 -4.070259508258e+03 
 -3.860720155887e+03 
 -3.700718068452e+03 
 -3.540715981016e+03 
 -3.782500337208e+03 
 -3.622498249773e+03 
 -3.704280518529e+03 
 -4.706202612881e+03 
 -4.628138898607e+03 
 -4.550075184332e+03 
 -4.516838051700e+03 
 -4.438774337426e+03 
 -4.327473490519e+03 
 -5.046492570342e+03 
 -4.707835966499e+03 
 -4.369179362657e+03 
 -4.801192289112e+03 
 -4.462535685270e+03 
 -4.555892007883e+03 
 -4.188687144110e+03 
 -4.233265053260e+03 
 -4.277842962410e+03 
 -4.265021379754e+03 
 -4.309599288904e+03 
 -4.341355615398e+03 
 -4.681526123737e+03 
 -4.613272011748e+03 
 -4.545017899760e+03 
 -4.699654320459e+03 
 -4.631400208470e+03 
 -4.717782517181e+03 
 -4.940810695017e+03 
 -4.776440665519e+03 
 -4.612070636020e+03 
 -4.836246344490e+03 
 -4.671876314992e+03 
 -4.731681993964e+03 
 -1.832175387103e+03 
 -3.789438909918e+03 
 -5.746702432733e+03 
 -1.603415733023e+03 
 -3.560679255838e+03 
 -1.374656078943e+03 
 -4.709810408249e+03 
 -4.886214439476e+03 
 -5.062618470702e+03 
 -4.983068425096e+03 
 -5.159472456323e+03 
 -5.256326441943e+03 
 -4.779658951574e+03 
 -4.791778646868e+03 
 -4.803898342161e+03 
 -4.739487429107e+03 
 -4.751607124401e+03 
 -4.699315906641e+03 
 -5.835271449502e+03 
 -5.729541660397e+03 
 -5.623811871292e+03 
 -5.050999325407e+03 
 -4.945269536302e+03 
 -4.266727201312e+03 
 -4.673361695520e+03 
 -4.921941865202e+03 
 -5.170522034884e+03 
 -4.746954149061e+03 
 -4.995534318743e+03 
 -4.820546602602e+03 
 -4.191760324043e+03 
 -4.254890919938e+03 
 -4.318021515832e+03 
 -4.394025421658e+03 
 -4.457156017553e+03 
 -4.596290519273e+03 
 -5.132720043078e+03 
 -5.048054135845e+03 
 -4.963388228613e+03 
 -5.229940258423e+03 
 -5.145274351191e+03 
 -5.327160473768e+03 
 -6.352047857383e+03 
 -6.446597212402e+03 
 -6.541146567422e+03 
 -6.297885497377e+03 
 -6.392434852397e+03 
 -6.243723137372e+03 
 -5.467993838594e+03 
 -5.171066301788e+03 
 -4.874138764983e+03 
 -5.558212726700e+03 
 -5.261285189895e+03 
 -5.648431614807e+03 
 -1.930273299735e+03 
 -4.165995250395e+03 
 -6.401717201055e+03 
 -2.316241055165e+03 
 -4.551963005825e+03 
 -2.702208810595e+03 
 -4.049351125787e+03 
 -3.634056414998e+03 
 -3.218761704208e+03 
 -4.351946718811e+03 
 -3.936652008022e+03 
 -4.654542311835e+03 
  2.776595049063e+04 
  2.455164272603e+04 
  2.133733496143e+04 
  2.429904431015e+04 
  2.108473654555e+04 
  2.083213812967e+04 
 -1.622729410451e+03 
 -1.207669237870e+03 
 -7.926090652896e+02 
 -1.799769553229e+03 
 -1.384709380649e+03 
 -1.976809696008e+03 
 -2.448599800174e+03 
 -2.101267297266e+03 
 -1.753934794358e+03 
 -4.051354490852e+03 
 -3.704021987944e+03 
 -5.654109181531e+03 
  2.062042475821e+03 
  1.952503000870e+03 
  1.842963525919e+03 
  1.890714627491e+03 
  1.781175152541e+03 
  1.719386779162e+03 
 -5.223667037074e+03 
 -5.488130981489e+03 
 -5.752594925903e+03 
 -4.671172766558e+03 
 -4.935636710973e+03 
 -4.118678496042e+03 
 -2.138727129719e+03 
 -1.794489873150e+03 
 -1.450252616580e+03 
 -2.974092502451e+03 
 -2.629855245882e+03 
 -3.809457875184e+03 
 -3.286779032400e+03 
 -3.479791687759e+03 
 -3.672804343119e+03 
 -5.839211480322e+03 
 -6.032224135681e+03 
 -8.391643928244e+03 
 -3.183810741059e+03 
 -5.129170467967e+03 
 -7.074530194876e+03 
 -2.739767994675e+03 
 -4.685127721584e+03 
 -2.295725248292e+03 
  4.758901995437e+03 
  4.593436591060e+03 
  4.427971186682e+03 
  4.559549753601e+03 
  4.394084349224e+03 
  4.360197511765e+03 
 -2.718671705303e+03 
 -5.293656307442e+03 
 -7.868640909582e+03 
 -3.065124960990e+03 
 -5.640109563129e+03 
 -3.411578216677e+03 
 -4.920233094323e+03 
 -5.174777323102e+03 
 -5.429321551880e+03 
 -5.790150830025e+03 
 -6.044695058804e+03 
 -6.660068565728e+03 
 -6.314195885118e+03 
 -6.316729701200e+03 
 -6.319263517281e+03 
 -6.562891616955e+03 
 -6.565425433037e+03 
 -6.811587348793e+03 
 -2.898116797710e+03 
 -2.299242717879e+03 
 -1.700368638047e+03 
 -2.429219102914e+03 
 -1.830345023083e+03 
 -1.960321408118e+03 
 -4.994498420720e+03 
 -5.766647224729e+03 
 -6.538796028739e+03 
 -5.382284402527e+03 
 -6.154433206536e+03 
 -5.770070384334e+03 
 -5.299350519750e+03 
 -4.817395225787e+03 
 -4.335439931824e+03 
 -5.327971088003e+03 
 -4.846015794040e+03 
 -5.356591656256e+03 
 -4.633641894051e+03 
 -4.575201667959e+03 
 -4.516761441867e+03 
 -4.725822317563e+03 
 -4.667382091471e+03 
 -4.818002741075e+03 
 -5.579205935548e+03 
 -5.808861588472e+03 
 -6.038517241395e+03 
 -5.734167393484e+03 
 -5.963823046408e+03 
 -5.889128851420e+03 
 -4.508003143411e+03 
 -3.988721114537e+03 
 -3.469439085664e+03 
 -4.250821308506e+03 
 -3.731539279632e+03 
 -3.993639473601e+03 
 -3.395186263539e+03 
 -3.527082669801e+03 
 -3.658979076062e+03 
 -4.411331850040e+03 
 -4.543228256302e+03 
 -5.427477436541e+03 
 -5.210740397595e+02 
 -6.407779272408e+02 
 -7.604818147220e+02 
 -9.787330358128e+01 
 -2.175771910625e+02 
  3.253274325970e+02 
  8.850536302505e+02 
  7.978738352416e+02 
  7.106940402328e+02 
  9.106447184528e+02 
  8.234649234440e+02 
  9.362358066551e+02 
  1.447029649104e+02 
  1.531763727888e+02 
  1.616497806671e+02 
  1.281821893356e+02 
  1.366555972140e+02 
  1.116614137608e+02 
  3.414508556138e+02 
  3.851410896314e+02 
  4.288313236489e+02 
  3.642036899240e+02 
  4.078939239416e+02 
  3.869565242343e+02 
  2.414514308713e+02 
  1.992739775426e+02 
  1.570965242138e+02 
  2.136981186247e+02 
  1.715206652959e+02 
  1.859448063780e+02 
  3.606315047662e+02 
  4.171475852649e+02 
  4.736636657636e+02 
  3.716304462587e+02 
  4.281465267574e+02 
  3.826293877512e+02 
  5.099241750804e+09 
  5.112560109443e+09 
  5.125878468082e+09 
  5.338588404381e+09 
  5.351906763020e+09 
  5.577935057958e+09 
  4.664766332499e+02 
  4.672487330567e+02 
  4.680208328636e+02 
  5.865451863468e+02 
  5.873172861537e+02 
  7.066137394438e+02 
  4.732385702739e+01 
 -5.260847745091e+01 
 -1.525408119292e+02 
  2.230600257309e+00 
 -9.770173422099e+01 
 -4.286265651277e+01 
  1.014664535685e+03 
  1.112562634368e+03 
  1.210460733051e+03 
  8.531019329807e+02 
  9.510000316636e+02 
  6.915393302761e+02 
  2.820284739622e+03 
  2.443682659894e+03 
  2.067080580167e+03 
  2.932966759804e+03 
  2.556364680077e+03 
  3.045648779986e+03 
  1.772962182635e+03 
  1.987788857899e+03 
  2.202615533163e+03 
  1.974423411391e+03 
  2.189250086655e+03 
  2.175884640146e+03 
  1.985162727464e+03 
  1.708958952483e+03 
  1.432755177502e+03 
  1.733193411583e+03 
  1.456989636602e+03 
  1.481224095702e+03 
  2.930574969426e+03 
  2.802114420755e+03 
  2.673653872084e+03 
  2.997656270872e+03 
  2.869195722201e+03 
  3.064737572318e+03 
  1.475622710692e+03 
  1.547010026475e+03 
  1.618397342259e+03 
  1.425943603200e+03 
  1.497330918984e+03 
  1.376264495708e+03 
  1.499234416375e+03 
  1.012235186505e+03 
  5.252359566353e+02 
  1.541133348311e+03 
  1.054134118441e+03 
  1.583032280246e+03 
  5.449392065438e+02 
  2.934415147654e+02 
  4.194382298704e+01 
  2.224059533409e+02 
 -2.909173843750e+01 
 -1.001272998620e+02 
 -1.517137796806e+02 
 -4.092731595025e+02 
 -6.668325393244e+02 
 -8.331005108868e+01 
 -3.408694309106e+02 
 -1.490632249674e+01 
  1.283462727264e+03 
  1.379650192781e+03 
  1.475837658297e+03 
  1.376624791673e+03 
  1.472812257189e+03 
  1.469786856082e+03 
  5.372639561154e+02 
  6.020155618456e+02 
  6.667671675757e+02 
  5.389140792303e+02 
  6.036656849605e+02 
  5.405642023452e+02 
  4.678457683120e+02 
  5.383508294724e+02 
  6.088558906327e+02 
  5.534900439576e+02 
  6.239951051180e+02 
  6.391343196033e+02 
  6.238316171365e+02 
  7.158895264570e+02 
  8.079474357775e+02 
  6.385298360761e+02 
  7.305877453965e+02 
  6.532280550156e+02 
  7.079630484599e+02 
  6.147830554438e+02 
  5.216030624277e+02 
  6.990496514339e+02 
  6.058696584178e+02 
  6.901362544079e+02 
  3.195574086896e+03 
  2.841274423496e+03 
  2.486974760097e+03 
  2.765074050760e+03 
  2.410774387360e+03 
  2.334574014624e+03 
  1.769675781699e+05 
  1.772869580995e+05 
  1.776063380291e+05 
  1.854281037038e+05 
  1.857474836334e+05 
  1.938886292377e+05 
  1.530240925525e+03 
  1.698000106473e+03 
  1.865759287420e+03 
  1.570057853255e+03 
  1.737817034202e+03 
  1.609874780984e+03 
 -1.737801995771e+05 
 -1.641096792854e+05 
 -1.544391589937e+05 
 -1.631166111365e+05 
 -1.534460908447e+05 
 -1.524530226958e+05 
  2.217544441039e+03 
  2.367295575744e+03 
  2.517046710450e+03 
  2.340882376283e+03 
  2.490633510989e+03 
  2.464220311527e+03 
  2.737954197027e+03 
  2.549500682021e+03 
  2.361047167015e+03 
  2.598684112350e+03 
  2.410230597344e+03 
  2.459414027673e+03 
  2.204231405505e+03 
  2.355962440664e+03 
  2.507693475823e+03 
  2.299407818563e+03 
  2.451138853722e+03 
  2.394584231622e+03 
  2.462253444542e+03 
  2.348173581786e+03 
  2.234093719030e+03 
  2.345864440002e+03 
  2.231784577246e+03 
  2.229475435463e+03 
  3.021527917982e+03 
  3.017742588826e+03 
  3.013957259671e+03 
  3.097411768449e+03 
  3.093626439294e+03 
  3.173295618917e+03 
  1.902951033921e+03 
  1.927643955683e+03 
  1.952336877445e+03 
  1.848842805825e+03 
  1.873535727587e+03 
  1.794734577730e+03 
  3.459703522988e+03 
  3.562675267441e+03 
  3.665647011895e+03 
  3.405241424129e+03 
  3.508213168583e+03 
  3.350779325270e+03 
  1.512588576782e+03 
  1.512084038652e+03 
  1.511579500522e+03 
  1.425496958153e+03 
  1.424992420023e+03 
  1.338405339523e+03 
  1.507652187591e+03 
  1.592475422632e+03 
  1.677298657673e+03 
  1.508047732333e+03 
  1.592870967374e+03 
  1.508443277075e+03 
  3.004764551417e+03 
  3.111882663710e+03 
  3.219000776004e+03 
  3.057342025150e+03 
  3.164460137443e+03 
  3.109919498883e+03 
  2.677112165486e+03 
  2.790958986792e+03 
  2.904805808099e+03 
  2.946408594580e+03 
  3.060255415887e+03 
  3.215705023674e+03 
  9.783882843440e+07 
  4.220508675611e+08 
  7.462629066878e+08 
  5.060361224671e+09 
  5.384573263798e+09 
  1.002288362091e+10 
  6.456511773127e+02 
  1.033609633507e+03 
  1.421568089702e+03 
  1.513910924581e+03 
  1.901869380775e+03 
  2.382170671849e+03 
  3.949222101197e+02 
  5.448726543931e+01 
 -2.859476792411e+02 
  5.329045188436e+02 
  1.924695741632e+02 
  6.708868275674e+02 
  3.101420749353e+03 
  3.100869482435e+03 
  3.100318215518e+03 
  3.353528599318e+03 
  3.352977332401e+03 
  3.605636449284e+03 
  5.141818647164e+03 
  4.189117934073e+03 
  3.236417220982e+03 
  4.298518226262e+03 
  3.345817513171e+03 
  3.455217805361e+03 
  4.162264366271e+03 
  3.949761576319e+03 
  3.737258786368e+03 
  3.753621213703e+03 
  3.541118423751e+03 
  3.344978061134e+03 
  4.216391939628e+03 
  3.733697618072e+03 
  3.251003296517e+03 
  3.814110010752e+03 
  3.331415689196e+03 
  3.411828081875e+03 
  1.872926057065e+03 
  2.690356964361e+03 
  3.507787871658e+03 
  1.327261705124e+03 
  2.144692612421e+03 
  7.815973531836e+02 
  1.689780121678e+03 
  1.867860889993e+03 
  2.045941658308e+03 
  2.271419015436e+03 
  2.449499783751e+03 
  2.853057909194e+03 
  2.757352608081e+03 
  2.972718150686e+03 
  3.188083693292e+03 
  4.817748954340e+03 
  5.033114496945e+03 
  6.878145300599e+03 
 -8.764136254179e+03 
 -8.661450278763e+03 
 -8.558764303347e+03 
 -8.808426000412e+03 
 -8.705740024996e+03 
 -8.852715746645e+03 
  1.250012794801e+06 
  1.250942964235e+06 
  1.251873133669e+06 
  1.216308364801e+06 
  1.217238534235e+06 
  1.182603934802e+06 
 -7.299706795263e+02 
 -7.909480225506e+02 
 -8.519253655750e+02 
 -8.261601237157e+02 
 -8.871374667400e+02 
 -9.223495679050e+02 
  8.357217939977e+03 
  5.583011785264e+03 
  2.808805630550e+03 
  5.629828405800e+03 
  2.855622251086e+03 
  2.902438871622e+03 
  8.501235281902e+03 
  5.841644036815e+03 
  3.182052791728e+03 
  5.854073389080e+03 
  3.194482143993e+03 
  3.206911496258e+03 
 -1.708213386193e+04 
 -1.709449010835e+04 
 -1.710684635477e+04 
 -1.764178052275e+04 
 -1.765413676917e+04 
 -1.820142718357e+04 
  4.884987196169e+03 
  4.552855777508e+03 
  4.220724358847e+03 
  5.574892798274e+03 
  5.242761379613e+03 
  6.264798400379e+03 
 -3.934721203429e+04 
 -4.082621465035e+04 
 -4.230521726641e+04 
 -4.014817065808e+04 
 -4.162717327414e+04 
 -4.094912928186e+04 
  6.700013038916e+03 
  4.640864149794e+03 
  2.581715260671e+03 
  4.529690306483e+03 
  2.470541417360e+03 
  2.359367574049e+03 
  4.080760695440e+03 
  4.434378197390e+03 
  4.787995699339e+03 
  4.136506156730e+03 
  4.490123658680e+03 
  4.192251618021e+03 
  5.137854168739e+03 
  4.608173097234e+03 
  4.078492025729e+03 
  4.922540994004e+03 
  4.392859922498e+03 
  4.707227819268e+03 
  4.512103538346e+03 
  4.363440369091e+03 
  4.214777199837e+03 
  4.329356737156e+03 
  4.180693567902e+03 
  4.146609935966e+03 
  3.148746557361e+03 
  3.029849044754e+03 
  2.910951532147e+03 
  3.186261008760e+03 
  3.067363496153e+03 
  3.223775460159e+03 
  3.443736362648e+03 
  3.373697255667e+03 
  3.303658148687e+03 
  3.509556198523e+03 
  3.439517091543e+03 
  3.575376034398e+03 
  4.159098927159e+03 
  4.233215091280e+03 
  4.307331255402e+03 
  4.073278650836e+03 
  4.147394814958e+03 
  3.987458374513e+03 
  4.362914096507e+03 
  4.855599865267e+03 
  5.348285634027e+03 
  4.725156180069e+03 
  5.217841948829e+03 
  5.087398263630e+03 
  3.773858006721e+03 
  3.856748163523e+03 
  3.939638320325e+03 
  3.632738780594e+03 
  3.715628937397e+03 
  3.491619554468e+03 
  4.677270572318e+03 
  4.472697541974e+03 
  4.268124511630e+03 
  4.458481076813e+03 
  4.253908046469e+03 
  4.239691581309e+03 
  5.489682535977e+03 
  6.060548449345e+03 
  6.631414362714e+03 
  4.850293001972e+03 
  5.421158915341e+03 
  4.210903467967e+03 
  4.312802155746e+03 
  4.226201328145e+03 
  4.139600500544e+03 
  4.383196473055e+03 
  4.296595645454e+03 
  4.453590790364e+03 
  4.003192802197e+03 
  3.992684516765e+03 
  3.982176231334e+03 
  3.959425142670e+03 
  3.948916857239e+03 
  3.915657483144e+03 
  5.104304120221e+03 
  4.943138352699e+03 
  4.781972585178e+03 
  5.154247421019e+03 
  4.993081653497e+03 
  5.204190721817e+03 
  4.525849184689e+03 
  4.556787209006e+03 
  4.587725233324e+03 
  4.472464237549e+03 
  4.503402261867e+03 
  4.419079290410e+03 
  4.236857214791e+03 
  4.277765359078e+03 
  4.318673503366e+03 
  4.202559362721e+03 
  4.243467507009e+03 
  4.168261510652e+03 
  4.681846321906e+03 
  4.483734226041e+03 
  4.285622130175e+03 
  4.543472068722e+03 
  4.345359972857e+03 
  4.405097815538e+03 
  3.367380360179e+03 
  3.738829573402e+03 
  4.110278786625e+03 
  4.466271786962e+03 
  4.837721000185e+03 
  5.565163213745e+03 