# vtk DataFile Version 2
NuDG++ 2D simulation
ASCII
DATASET UNSTRUCTURED_GRID

POINTS 2244 double
 -1.656250060000e-01  -2.000000030000e-01  0.0
 -1.828125045000e-01  -1.772221997500e-01  0.0
 -2.000000030000e-01  -1.544443965000e-01  0.0
 -1.828125045000e-01  -2.000000030000e-01  0.0
 -2.000000030000e-01  -1.772221997500e-01  0.0
 -2.000000030000e-01  -2.000000030000e-01  0.0
 -6.428571790000e-02  -1.700000018000e-01  0.0
 -8.058035746000e-02  -1.850000024000e-01  0.0
 -9.687499702000e-02  -2.000000030000e-01  0.0
 -6.339285895000e-02  -1.850000024000e-01  0.0
 -7.968749851000e-02  -2.000000030000e-01  0.0
 -6.250000000000e-02  -2.000000030000e-01  0.0
 -2.000000030000e-01  -1.544443965000e-01  0.0
 -1.750000045000e-01  -1.379364989500e-01  0.0
 -1.500000060000e-01  -1.214286014000e-01  0.0
 -2.000000030000e-01  -1.316666491500e-01  0.0
 -1.750000045000e-01  -1.151587516000e-01  0.0
 -2.000000030000e-01  -1.088889018000e-01  0.0
 -1.500000060000e-01  -1.214286014000e-01  0.0
 -1.750000045000e-01  -1.379364989500e-01  0.0
 -2.000000030000e-01  -1.544443965000e-01  0.0
 -1.500000060000e-01  -1.457143016000e-01  0.0
 -1.750000045000e-01  -1.622221991500e-01  0.0
 -1.500000060000e-01  -1.700000018000e-01  0.0
 -1.500000060000e-01  -7.285714149000e-02  0.0
 -1.750000045000e-01  -9.087302164500e-02  0.0
 -2.000000030000e-01  -1.088889018000e-01  0.0
 -1.500000060000e-01  -9.714287144500e-02  0.0
 -1.750000045000e-01  -1.151587516000e-01  0.0
 -1.500000060000e-01  -1.214286014000e-01  0.0
  1.832975030000e+00  -4.625000060000e-02  0.0
  1.853987515000e+00  -1.231250018000e-01  0.0
  1.875000000000e+00  -2.000000030000e-01  0.0
  1.916487515000e+00  -7.187499851000e-02  0.0
  1.937500000000e+00  -1.487499997100e-01  0.0
  2.000000000000e+00  -9.749999642000e-02  0.0
 -1.500000060000e-01  -1.700000018000e-01  0.0
 -1.360000037000e-01  -1.525000036000e-01  0.0
 -1.220000014000e-01  -1.350000054000e-01  0.0
 -1.500000060000e-01  -1.457143016000e-01  0.0
 -1.360000037000e-01  -1.282143034000e-01  0.0
 -1.500000060000e-01  -1.214286014000e-01  0.0
  2.849999964000e-01  -2.333333530000e-02  0.0
  2.837499976000e-01  -8.166666795000e-02  0.0
  2.824999988000e-01  -1.400000006000e-01  0.0
  3.174999952000e-01  -4.666666780000e-02  0.0
  3.162499964000e-01  -1.050000004500e-01  0.0
  3.499999940000e-01  -7.000000030000e-02  0.0
 -1.071429029000e-01  -1.700000018000e-01  0.0
 -8.571431040000e-02  -1.700000018000e-01  0.0
 -6.428571790000e-02  -1.700000018000e-01  0.0
 -9.857145324000e-02  -1.525000036000e-01  0.0
 -7.714286074000e-02  -1.525000036000e-01  0.0
 -9.000000358000e-02  -1.350000054000e-01  0.0
 -1.312499940000e-01  -2.000000030000e-01  0.0
 -1.191964484500e-01  -1.850000024000e-01  0.0
 -1.071429029000e-01  -1.700000018000e-01  0.0
 -1.406250000000e-01  -1.850000024000e-01  0.0
 -1.285714544500e-01  -1.700000018000e-01  0.0
 -1.500000060000e-01  -1.700000018000e-01  0.0
 -1.220000014000e-01  -1.350000054000e-01  0.0
 -1.060000024900e-01  -1.350000054000e-01  0.0
 -9.000000358000e-02  -1.350000054000e-01  0.0
 -1.185000017500e-01  -1.175000034500e-01  0.0
 -1.025000028400e-01  -1.175000034500e-01  0.0
 -1.150000021000e-01  -1.000000015000e-01  0.0
 -9.000000358000e-02  -1.350000054000e-01  0.0
 -1.060000024900e-01  -1.350000054000e-01  0.0
 -1.220000014000e-01  -1.350000054000e-01  0.0
 -9.857145324000e-02  -1.525000036000e-01  0.0
 -1.145714521500e-01  -1.525000036000e-01  0.0
 -1.071429029000e-01  -1.700000018000e-01  0.0
 -7.778175920000e-02  -9.192386270000e-02  0.0
 -9.639088065000e-02  -9.596193210000e-02  0.0
 -1.150000021000e-01  -1.000000015000e-01  0.0
 -8.389088139000e-02  -1.134619340500e-01  0.0
 -1.025000028400e-01  -1.175000034500e-01  0.0
 -9.000000358000e-02  -1.350000054000e-01  0.0
 -1.220000014000e-01  -1.350000054000e-01  0.0
 -1.185000017500e-01  -1.175000034500e-01  0.0
 -1.150000021000e-01  -1.000000015000e-01  0.0
 -1.360000037000e-01  -1.282143034000e-01  0.0
 -1.325000040500e-01  -1.107143014500e-01  0.0
 -1.500000060000e-01  -1.214286014000e-01  0.0
 -7.778175920000e-02  -9.192386270000e-02  0.0
 -8.389088139000e-02  -1.134619340500e-01  0.0
 -9.000000358000e-02  -1.350000054000e-01  0.0
 -6.639088876500e-02  -1.022535823500e-01  0.0
 -7.250001095500e-02  -1.237916537000e-01  0.0
 -5.500001833000e-02  -1.125833020000e-01  0.0
 -1.071429029000e-01  -1.700000018000e-01  0.0
 -1.145714521500e-01  -1.525000036000e-01  0.0
 -1.220000014000e-01  -1.350000054000e-01  0.0
 -1.285714544500e-01  -1.700000018000e-01  0.0
 -1.360000037000e-01  -1.525000036000e-01  0.0
 -1.500000060000e-01  -1.700000018000e-01  0.0
  6.250000093000e-03  -2.000000030000e-01  0.0
  4.062500153650e-02  -2.000000030000e-01  0.0
  7.500000298000e-02  -2.000000030000e-01  0.0
  1.383928512150e-02  -1.850000024000e-01  0.0
  4.821428656500e-02  -1.850000024000e-01  0.0
  2.142857015000e-02  -1.700000018000e-01  0.0
 -1.500000060000e-01  -7.285714149000e-02  0.0
 -1.500000060000e-01  -9.714287144500e-02  0.0
 -1.500000060000e-01  -1.214286014000e-01  0.0
 -1.325000040500e-01  -8.642857149500e-02  0.0
 -1.325000040500e-01  -1.107143014500e-01  0.0
 -1.150000021000e-01  -1.000000015000e-01  0.0
 -2.000000030000e-01  -6.333333254000e-02  0.0
 -1.750000045000e-01  -6.809523701500e-02  0.0
 -1.500000060000e-01  -7.285714149000e-02  0.0
 -1.750000045000e-01  -4.380952660000e-02  0.0
 -1.500000060000e-01  -4.857143107500e-02  0.0
 -1.500000060000e-01  -2.428572066000e-02  0.0
 -2.000000030000e-01  -6.333333254000e-02  0.0
 -2.000000030000e-01  -8.611111717000e-02  0.0
 -2.000000030000e-01  -1.088889018000e-01  0.0
 -1.750000045000e-01  -6.809523701500e-02  0.0
 -1.750000045000e-01  -9.087302164500e-02  0.0
 -1.500000060000e-01  -7.285714149000e-02  0.0
 -2.000000030000e-01  -6.333333254000e-02  0.0
 -1.750000045000e-01  -4.380952660000e-02  0.0
 -1.500000060000e-01  -2.428572066000e-02  0.0
 -2.000000030000e-01  -4.055555630500e-02  0.0
 -1.750000045000e-01  -2.103175036500e-02  0.0
 -2.000000030000e-01  -1.777778007000e-02  0.0
 -1.500000060000e-01  -2.428572066000e-02  0.0
 -1.500000060000e-01  -4.857143107500e-02  0.0
 -1.500000060000e-01  -7.285714149000e-02  0.0
 -1.281259023000e-01  -2.896608505500e-02  0.0
 -1.281259023000e-01  -5.325179547000e-02  0.0
 -1.062517986000e-01  -3.364644945000e-02  0.0
 -1.099999994000e-01   1.996667010000e-08  0.0
 -1.300000027000e-01  -1.214285034666e-02  0.0
 -1.500000060000e-01  -2.428572066000e-02  0.0
 -1.081258990000e-01  -1.682321474166e-02  0.0
 -1.281259023000e-01  -2.896608505500e-02  0.0
 -1.062517986000e-01  -3.364644945000e-02  0.0
 -1.500000060000e-01  -2.428572066000e-02  0.0
 -1.500000060000e-01   0.000000000000e+00  0.0
 -1.500000060000e-01   2.428572066000e-02  0.0
 -1.750000045000e-01  -2.103175036500e-02  0.0
 -1.750000045000e-01   3.253970295000e-03  0.0
 -2.000000030000e-01  -1.777778007000e-02  0.0
 -1.500000060000e-01  -7.285714149000e-02  0.0
 -1.226314045700e-01  -6.892856210000e-02  0.0
 -9.526280314000e-02  -6.499998271000e-02  0.0
 -1.281259023000e-01  -5.325179547000e-02  0.0
 -1.007573008700e-01  -4.932321608000e-02  0.0
 -1.062517986000e-01  -3.364644945000e-02  0.0
  3.499999940000e-01   1.400000006000e-01  0.0
  4.021931737500e-01   1.224999986500e-01  0.0
  4.543863535000e-01   1.049999967000e-01  0.0
  4.187500029500e-01   1.749999970000e-01  0.0
  4.709431827000e-01   1.574999950500e-01  0.0
  4.875000119000e-01   2.099999934000e-01  0.0
 -7.101409137000e-02  -4.349999130000e-02  0.0
 -8.313844725500e-02  -5.424998700500e-02  0.0
 -9.526280314000e-02  -6.499998271000e-02  0.0
 -6.449843011500e-02  -5.250913650000e-02  0.0
 -7.662278600000e-02  -6.325913220500e-02  0.0
 -5.798276886000e-02  -6.151828170000e-02  0.0
 -9.526280314000e-02  -6.499998271000e-02  0.0
 -1.226314045700e-01  -6.892856210000e-02  0.0
 -1.500000060000e-01  -7.285714149000e-02  0.0
 -1.051314026200e-01  -8.249999210500e-02  0.0
 -1.325000040500e-01  -8.642857149500e-02  0.0
 -1.150000021000e-01  -1.000000015000e-01  0.0
 -6.181925908000e-02  -1.656441018000e-02  0.0
 -7.051259093000e-02  -1.954082492500e-02  0.0
 -7.920592278000e-02  -2.251723967000e-02  0.0
 -5.862244405000e-02  -2.428220026000e-02  0.0
 -6.731577590000e-02  -2.725861500500e-02  0.0
 -5.542562902000e-02  -3.199999034000e-02  0.0
 -7.920592278000e-02  -2.251723967000e-02  0.0
 -9.272886069000e-02  -2.808184456000e-02  0.0
 -1.062517986000e-01  -3.364644945000e-02  0.0
 -7.511000707500e-02  -3.300861548500e-02  0.0
 -8.863294498500e-02  -3.857322037500e-02  0.0
 -7.101409137000e-02  -4.349999130000e-02  0.0
 -7.101409137000e-02  -4.349999130000e-02  0.0
 -6.321986019500e-02  -3.774999082000e-02  0.0
 -5.542562902000e-02  -3.199999034000e-02  0.0
 -7.511000707500e-02  -3.300861548500e-02  0.0
 -6.731577590000e-02  -2.725861500500e-02  0.0
 -7.920592278000e-02  -2.251723967000e-02  0.0
 -7.920592278000e-02  -2.251723967000e-02  0.0
 -9.460296109000e-02  -1.125860985166e-02  0.0
 -1.099999994000e-01   1.996667010000e-08  0.0
 -9.272886069000e-02  -2.808184456000e-02  0.0
 -1.081258990000e-01  -1.682321474166e-02  0.0
 -1.062517986000e-01  -3.364644945000e-02  0.0
 -7.778175920000e-02  -9.192386270000e-02  0.0
 -6.788226403000e-02  -7.672107220000e-02  0.0
 -5.798276886000e-02  -6.151828170000e-02  0.0
 -8.652228117000e-02  -7.846192270500e-02  0.0
 -7.662278600000e-02  -6.325913220500e-02  0.0
 -9.526280314000e-02  -6.499998271000e-02  0.0
 -7.101409137000e-02  -4.349999130000e-02  0.0
 -8.863294498500e-02  -3.857322037500e-02  0.0
 -1.062517986000e-01  -3.364644945000e-02  0.0
 -8.313844725500e-02  -5.424998700500e-02  0.0
 -1.007573008700e-01  -4.932321608000e-02  0.0
 -9.526280314000e-02  -6.499998271000e-02  0.0
 -7.778175920000e-02  -9.192386270000e-02  0.0
 -8.652228117000e-02  -7.846192270500e-02  0.0
 -9.526280314000e-02  -6.499998271000e-02  0.0
 -9.639088065000e-02  -9.596193210000e-02  0.0
 -1.051314026200e-01  -8.249999210500e-02  0.0
 -1.150000021000e-01  -1.000000015000e-01  0.0
[...]
POINT_DATA 2244
SCALARS field1 double 1
LOOKUP_TABLE default
  3.036652440456e-03 
  1.350212737455e-01 
  2.670058950505e-01 
  1.313751763855e-03 
  1.332983730689e-01 
 -4.091489127463e-04 
  3.751082191461e-01 
  1.861223077025e-01 
 -2.863603741035e-03 
  1.887188892821e-01 
 -2.670221614847e-04 
  2.329559418066e-03 
  2.642200832100e-01 
  3.417743547427e-01 
  4.193286262754e-01 
  3.644018324278e-01 
  4.419561039605e-01 
  4.645835816456e-01 
  4.201238233970e-01 
  3.420940302816e-01 
  2.640642371661e-01 
  3.146912851832e-01 
  2.366614920678e-01 
  2.092587469694e-01 
  5.774582014276e-01 
  5.212706636536e-01 
  4.650831258796e-01 
  5.010151610007e-01 
  4.448276232267e-01 
  4.245721205739e-01 
 -3.040667337355e-01 
 -4.130204477775e-01 
 -5.219741618195e-01 
 -3.823190878086e-01 
 -4.912728018505e-01 
 -4.605714418816e-01 
  2.101414849597e-01 
  3.018655493965e-01 
  3.935896138332e-01 
  3.155490530648e-01 
  4.072731175015e-01 
  4.209566211699e-01 
  5.629257724591e-01 
  5.293853265712e-01 
  4.958448806834e-01 
  5.674898214399e-01 
  5.339493755521e-01 
  5.720538704207e-01 
  2.788309105456e-01 
  3.276292827725e-01 
  3.764276549994e-01 
  3.613073625330e-01 
  4.101057347599e-01 
  4.437838145204e-01 
 -4.875468239441e-04 
  1.396737569190e-01 
  2.798350606619e-01 
  1.015040734196e-01 
  2.416653771626e-01 
  2.034956936632e-01 
  3.889513349482e-01 
  4.156882451920e-01 
  4.424251554358e-01 
  4.622622730126e-01 
  4.889991832564e-01 
  5.355732110769e-01 
  4.401150112880e-01 
  4.150322007857e-01 
  3.899493902833e-01 
  3.594313271855e-01 
  3.343485166831e-01 
  2.787476430829e-01 
  5.944489348686e-01 
  5.653017147681e-01 
  5.361544946676e-01 
  5.205324387173e-01 
  4.913852186167e-01 
  4.466159425659e-01 
  3.917414742103e-01 
  4.627957673671e-01 
  5.338500605240e-01 
  4.066269331421e-01 
  4.776812262990e-01 
  4.215123920739e-01 
  5.947358223484e-01 
  5.198285171857e-01 
  4.449212120229e-01 
  5.974783320714e-01 
  5.225710269087e-01 
  6.002208417945e-01 
  2.780300869038e-01 
  3.358576381250e-01 
  3.936851893463e-01 
  2.431520381896e-01 
  3.009795894108e-01 
  2.082739894754e-01 
  1.592102262669e-03 
  4.515651123727e-03 
  7.439199984785e-03 
  2.717599378494e-01 
  2.746834867105e-01 
  5.419277734362e-01 
  5.771672198013e-01 
  4.996563882424e-01 
  4.221455566836e-01 
  5.549901796862e-01 
  4.774793481274e-01 
  5.328131395712e-01 
  5.989719509863e-01 
  5.861461017514e-01 
  5.733202525165e-01 
  6.157557259574e-01 
  6.029298767225e-01 
  6.325395009286e-01 
  5.973811465106e-01 
  5.312067401721e-01 
  4.650323338337e-01 
  5.858302446660e-01 
  5.196558383276e-01 
  5.742793428214e-01 
  6.007420768300e-01 
  6.168613719009e-01 
  6.329806669717e-01 
  6.335674330709e-01 
  6.496867281417e-01 
  6.663927893117e-01 
  6.329434090179e-01 
  6.059104892421e-01 
  5.788775694663e-01 
  5.946586859435e-01 
  5.676257661677e-01 
  5.563739628692e-01 
  5.278139075617e-01 
  5.806126602710e-01 
  6.334114129803e-01 
  5.379680751249e-01 
  5.907668278342e-01 
  5.481222426881e-01 
  6.268952180286e-01 
  6.353561784808e-01 
  6.438171389330e-01 
  6.471013763965e-01 
  6.555623368487e-01 
  6.673075347644e-01 
  5.778988528971e-01 
  5.651828084156e-01 
  5.524667639341e-01 
  5.659907628242e-01 
  5.532747183427e-01 
  5.540826727513e-01 
  4.948733094582e-01 
  5.396493173524e-01 
  5.844253252466e-01 
  2.719901080190e-01 
  3.167661159132e-01 
  4.910690657989e-02 
  5.173821937312e-01 
  5.385176532397e-01 
  5.596531127481e-01 
  5.755017148983e-01 
  5.966371744068e-01 
  6.336212360654e-01 
  5.558144246169e-01 
  5.668548907061e-01 
  5.778953567953e-01 
  5.470541851204e-01 
  5.580946512096e-01 
  5.382939456240e-01 
  2.055092807103e-01 
  3.052454982812e-01 
  4.049817158522e-01 
  2.735991735508e-01 
  3.733353911217e-01 
  3.416890663913e-01 
  3.869409469468e-01 
  4.657489021177e-01 
  5.445568572886e-01 
  4.522628398707e-01 
  5.310707950417e-01 
  5.175847327947e-01 
  5.216695034605e-01 
  4.367229265317e-01 
  3.517763496029e-01 
  4.599680775115e-01 
  3.750215005827e-01 
  3.982666515626e-01 
  3.863718574508e-01 
  4.541930964375e-01 
  5.220143354241e-01 
  4.669429247528e-01 
  5.347641637395e-01 
  5.475139920548e-01 
  5.939673325637e-01 
  6.165230878015e-01 
  6.390788430393e-01 
  5.759785179744e-01 
  5.985342732122e-01 
  5.579897033850e-01 
  5.207919308447e-01 
  5.351319054278e-01 
  5.494718800108e-01 
  5.419721319262e-01 
  5.563121065093e-01 
  5.631523330077e-01 
  5.880870125028e-01 
  5.711920225443e-01 
  5.542970325857e-01 
  5.622146768094e-01 
  5.453196868508e-01 
  5.363423411160e-01 
  3.991419308691e-01 
  3.072125235654e-01 
  2.152831162618e-01 
  3.856240747132e-01 
  2.936946674095e-01 
  3.721062185573e-01 
  5.997439500158e-01 
  5.219753584777e-01 
  4.442067669395e-01 
  4.886211044261e-01 
  4.108525128879e-01 
  3.774982588364e-01 
 -2.619002631509e-01 
 -3.350392502983e-01 
 -4.081782374457e-01 
  5.875970014659e-02 
 -1.437928700078e-02 
  3.794196634441e-01 
  6.160788683150e-01 
  5.474691771231e-01 
  4.788594859313e-01 
  6.433324013183e-01 
  5.747227101264e-01 
  6.705859343215e-01 
  6.128548484176e-01 
  6.052322936784e-01 
  5.976097389391e-01 
  4.956589642077e-01 
  4.880364094685e-01 
  3.784630799978e-01 
  5.904398989502e-01 
  6.692595232145e-01 
  7.480791474789e-01 
  6.137809803977e-01 
  6.926006046621e-01 
  6.371220618452e-01 
  7.520460261985e-01 
  6.721219859911e-01 
  5.921979457837e-01 
  6.808031680150e-01 
  6.008791278076e-01 
  6.095603098315e-01 
  8.539108051678e-01 
  8.041826955584e-01 
  7.544545859490e-01 
  7.287134575998e-01 
  6.789853479903e-01 
  6.035161100317e-01 
  7.617014767090e-01 
  6.992059677191e-01 
  6.367104587292e-01 
  7.619548452806e-01 
  6.994593362907e-01 
  7.622082138523e-01 
  5.998169162164e-01 
  6.107906764343e-01 
  6.217644366523e-01 
  7.292320408126e-01 
  7.402058010305e-01 
  8.586471654088e-01 
  6.156603523095e-01 
  4.981667403599e-01 
  3.806731284102e-01 
  5.471835517764e-01 
  4.296899398268e-01 
  4.787067512434e-01 
  9.185866995702e-01 
  8.903876781675e-01 
  8.621886567648e-01 
  7.716019683544e-01 
  7.434029469517e-01 
  6.246172371386e-01 
 -1.530996136225e-03 
  3.764845515714e-01 
  7.545000992790e-01 
 -7.766129292869e-03 
  3.702494184147e-01 
 -1.400126244951e-02 
  8.812032787490e-01 
  8.394637117628e-01 
  7.977241447766e-01 
  8.585420437093e-01 
  8.168024767232e-01 
  8.358808086697e-01 
  7.924065986679e-01 
  8.364900133417e-01 
  8.805734280156e-01 
  8.451180260089e-01 
  8.892014406827e-01 
  8.978294533498e-01 
  8.320849846872e-01 
  8.086403213172e-01 
  7.851956579472e-01 
  4.231820756089e-01 
  3.997374122389e-01 
  1.427916653052e-02 
  8.613313342567e-01 
  8.506558962085e-01 
  8.399804581603e-01 
  8.122912437383e-01 
  8.016158056901e-01 
  7.632511532199e-01 
  8.605248296623e-01 
  8.135328222666e-01 
  7.665408148709e-01 
  8.835862280982e-01 
  8.365942207025e-01 
  9.066476265341e-01 
  9.212051792887e-01 
  7.728648339625e-01 
  6.245244886363e-01 
  7.970635649448e-01 
  6.487232196186e-01 
  6.729219506010e-01 
  4.802804432470e-01 
  5.038961417588e-01 
  5.275118402706e-01 
  5.762262297057e-01 
  5.998419282175e-01 
  6.721720161644e-01 
  7.577896440745e-01 
  7.647802520026e-01 
  7.717708599307e-01 
  7.961300952507e-01 
  8.031207031788e-01 
  8.344705464269e-01 
 -1.120925331510e-03 
  1.781713195110e-01 
  3.574635643534e-01 
  8.944801077323e-03 
  1.882370459198e-01 
  1.901052748616e-02 
  3.510313851338e-01 
  4.327909737787e-01 
  5.145505624236e-01 
  4.566986640331e-01 
  5.384582526780e-01 
  5.623659429325e-01 
  4.849814787447e-01 
  2.436058292126e-01 
  2.230179680556e-03 
  2.448486547967e-01 
  3.473005264591e-03 
  4.715830848625e-03 
 -1.667274327184e-02 
  3.120763890714e-02 
  7.908802108611e-02 
  9.297197241725e-02 
  1.408523545962e-01 
  2.026166881063e-01 
  8.784766940888e-03 
 -3.543886721576e-03 
 -1.587254038404e-02 
  1.723802706570e-01 
  1.600516169945e-01 
  3.359757743730e-01 
  3.246294579584e-01 
  1.631750791738e-01 
  1.720700389281e-03 
  2.924155276006e-01 
  1.309611488160e-01 
  2.602015972427e-01 
  3.535152065897e-01 
  4.656449861675e-01 
  5.777747657454e-01 
  1.897507805474e-01 
  3.018805601252e-01 
  2.598635450501e-02 
 -2.278823111422e-02 
  8.668548697752e-02 
  1.961592050693e-01 
  1.552040782912e-01 
  2.646777963830e-01 
  3.331963876967e-01 
  7.641713484180e-03 
  8.777903788819e-03 
  9.914094093457e-03 
  4.211484104904e-01 
  4.222846007951e-01 
  8.346551074967e-01 
  1.395899405997e-02 
  3.993163489950e-01 
  7.846737039301e-01 
  7.220174585306e-03 
  3.925775295204e-01 
  4.813551106462e-04 
  5.165213988839e-01 
  2.575010129853e-01 
 -1.519372913231e-03 
  4.693113382454e-01 
  2.102909523469e-01 
  4.221012776069e-01 
  6.645719503285e-03 
  3.081443127973e-01 
  6.096429060914e-01 
  1.834007167771e-02 
  3.198386649718e-01 
  3.003442385214e-02 
  2.231186140688e-02 
  3.892748114842e-01 
  7.562377615616e-01 
  4.232963729910e-01 
  7.902593230684e-01 
  8.242808845752e-01 
  4.808783583653e-01 
  2.451754060324e-01 
  9.472453699526e-03 
  5.033783150699e-01 
  2.676753627370e-01 
  5.258782717745e-01 
  2.848391309092e-01 
  1.430914136761e-01 
  1.343696442962e-03 
  1.445406067937e-01 
  2.792889560617e-03 
  4.242082678272e-03 
  4.316106200130e-02 
  3.216270619077e-01 
  6.000930618141e-01 
  3.985553968311e-01 
  6.770213967374e-01 
  7.539497316608e-01 
  5.754913680645e-01 
  6.066394943007e-01 
  6.377876205369e-01 
  6.662919354494e-01 
  6.974400616857e-01 
  7.570925028344e-01 
  3.859706245416e-01 
  1.974646146251e-01 
  8.958604708547e-03 
  4.284643810272e-01 
  2.399583711106e-01 
  4.709581375127e-01 
  9.200917573519e-01 
  7.943844998656e-01 
  6.686772423792e-01 
  8.278083388964e-01 
  7.021010814101e-01 
  7.355249204409e-01 
  5.670175207329e-01 
  5.399735012279e-01 
  5.129294817230e-01 
  6.040307528472e-01 
  5.769867333422e-01 
  6.410439849615e-01 
  2.145016267210e-03 
  5.560421308307e-03 
  8.975826349404e-03 
  1.959551019407e-01 
  1.993705069818e-01 
  3.897651876142e-01 
  6.905263518531e-02 
  3.072260010121e-02 
 -7.607434982896e-03 
  3.182168034697e-02 
 -6.508354737127e-03 
 -5.409274491357e-03 
  6.064227996106e-01 
  6.242133013681e-01 
  6.420038031256e-01 
  5.888371749129e-01 
  6.066276766704e-01 
  5.712515502152e-01 
  6.444955236296e-01 
  6.543622057117e-01 
  6.642288877938e-01 
  6.563672167313e-01 
  6.662338988135e-01 
  6.682389098331e-01 
  6.633511584752e-01 
  6.316123889243e-01 
  5.998736193735e-01 
  6.304520683567e-01 
  5.987132988058e-01 
  5.975529782382e-01 
  6.008751167801e-01 
  6.314959228863e-01 
  6.621167289925e-01 
  6.206056524131e-01 
  6.512264585193e-01 
  6.403361880461e-01 
  5.966419987107e-01 
  5.989357925695e-01 
  6.012295864282e-01 
  5.313332406599e-01 
  5.336270345187e-01 
  4.660244826092e-01 
 -3.427107251067e-01 
 -3.269468279493e-01 
 -3.111829307919e-01 
 -5.182125149547e-01 
 -5.024486177973e-01 
 -6.937143048026e-01 
  6.452286381016e-01 
  5.877727710101e-01 
  5.303169039186e-01 
  6.041456746259e-01 
  5.466898075344e-01 
  5.630627111501e-01 
  6.454261453379e-01 
  6.380316124484e-01 
  6.306370795590e-01 
  5.902224637933e-01 
  5.828279309039e-01 
  5.350187822488e-01 
  3.992230067109e-01 
  4.814783470826e-01 
  5.637336874544e-01 
  4.624287796130e-01 
  5.446841199847e-01 
  5.256345525151e-01 
  5.374821211747e-01 
  4.718323113855e-01 
  4.061825015964e-01 
  4.505641070109e-01 
  3.849142972217e-01 
  3.636460928471e-01 
  5.625591784807e-01 
  5.433692314203e-01 
  5.241792843600e-01 
  5.678960197589e-01 
  5.487060726985e-01 
  5.732328610371e-01 
  5.241526284510e-01 
  5.410588309646e-01 
  5.579650334781e-01 
  4.622431536061e-01 
  4.791493561196e-01 
  4.003336787611e-01 
  6.024818390945e-01 
  5.863986821521e-01 
  5.703155252097e-01 
  6.293423425333e-01 
  6.132591855908e-01 
  6.562028459720e-01 
  5.677038340795e-01 
  5.689776549491e-01 
  5.702514758186e-01 
  5.874410810210e-01 
  5.887149018905e-01 
  6.071783279624e-01 
  4.072150802391e-01 
  3.874469273324e-01 
  3.676787744258e-01 
  3.159104060859e-01 
  2.961422531793e-01 
  2.246057319328e-01 
  4.000316440470e-01 
  4.607393049173e-01 
  5.214469657877e-01 
  3.818097178597e-01 
  4.425173787301e-01 
  3.635877916725e-01 
  5.187450302926e-01 
  4.539497989497e-01 
  3.891545676069e-01 
  4.428978112629e-01 
  3.781025799200e-01 
  3.670505922332e-01 
  6.054271399848e-01 
  5.911045208109e-01 
  5.767819016370e-01 
  5.814258660369e-01 
  5.671032468630e-01 
  5.574245920890e-01 
  4.654085743222e-01 
  4.598572729733e-01 
  4.543059716244e-01 
  3.649689373079e-01 
  3.594176359590e-01 
  2.645293002937e-01 
  4.664661570638e-01 
  5.348954342463e-01 
  6.033247114288e-01 
  4.622349625406e-01 
  5.306642397231e-01 
  4.580037680173e-01 
  2.625097363346e-01 
  2.609082279816e-01 
  2.593067196286e-01 
  1.309750446820e-01 
  1.293735363290e-01 
 -5.596469706941e-04 
  2.618958788515e-01 
  2.625898968980e-01 
  2.632839149445e-01 
  3.584435529614e-01 
  3.591375710079e-01 
  4.549912270713e-01 
  3.333992945528e-01 
  1.686486356733e-01 
  3.897976793867e-03 
  1.668192511654e-01 
  2.068592285956e-03 
  2.392077780447e-04 
  1.439037981588e-02 
  6.986339556237e-03 
 -4.177007034055e-04 
  2.669821220748e-01 
  2.595780818151e-01 
  5.195738643337e-01 
  4.550224178506e-01 
  4.410911341798e-01 
  4.271598505091e-01 
  3.589657374465e-01 
  3.450344537758e-01 
  2.629090570424e-01 
  4.516894653366e-01 
  2.284359097626e-01 
  5.182354188571e-03 
  2.413525394913e-01 
  1.809898391729e-02 
  3.101561364601e-02 
  5.538290170578e-01 
  5.758246372136e-01 
  5.978202573694e-01 
  5.209466260834e-01 
  5.429422462392e-01 
  4.880642351090e-01 
  5.955866680555e-01 
  5.760773388007e-01 
  5.565680095458e-01 
  5.857481722870e-01 
  5.662388430321e-01 
  5.759096765184e-01 
  4.232855339079e-01 
  4.567658020479e-01 
  4.902460701880e-01 
  3.758001327562e-01 
  4.092804008962e-01 
  3.283147316044e-01 
  4.871517398382e-01 
  4.557977730228e-01 
  4.244438062075e-01 
  5.195227413938e-01 
  4.881687745784e-01 
  5.518937429493e-01 
  3.297255770620e-01 
  4.120666332932e-01 
  4.944076895243e-01 
  3.858220525348e-01 
  4.681631087660e-01 
  4.419185280077e-01 
  4.269118393869e-01 
  3.759579984645e-01 
  3.250041575422e-01 
  3.444553012535e-01 
  2.935014603312e-01 
  2.619987631202e-01 
  5.960405758195e-01 
  5.938967335890e-01 
  5.917528913584e-01 
  5.425322411495e-01 
  5.403883989189e-01 
  4.890239064794e-01 
  5.511852183726e-01 
  4.890983925674e-01 
  4.270115667622e-01 
  5.029204615695e-01 
  4.408336357643e-01 
  4.546557047663e-01 
  6.030716912410e-01 
  5.765416523937e-01 
  5.500116135464e-01 
  5.288781585898e-01 
  5.023481197425e-01 
  4.546846259387e-01 
  3.341537297493e-01 
  3.822013367673e-01 
  4.302489437853e-01 
  1.679662220097e-01 
  2.160138290277e-01 
  1.778714270053e-03 
  5.651489126582e-01 
  5.457292595055e-01 
  5.263096063528e-01 
  6.099663817647e-01 
  5.905467286120e-01 
  6.547838508712e-01 
 -5.033952562615e-01 
 -5.130867729258e-01 
 -5.227782895902e-01 
 -6.148997453179e-01 
 -6.245912619822e-01 
 -7.264042343742e-01 
  7.326518568520e-02 
  3.229931708324e-02 
 -8.666551518725e-03 
  1.455557965559e-01 
  1.045899279539e-01 
  2.178464074266e-01 
  6.693230707883e-02 
  3.029527172059e-02 
 -6.341763637659e-03 
  3.109958176492e-02 
 -5.537453593330e-03 
 -4.733143549001e-03 
  2.235248357105e-01 
  1.115888351905e-01 
 -3.471653294738e-04 
  2.847400359518e-01 
  1.728040354318e-01 
  3.459552361932e-01 
  5.360098026359e-01 
  4.383600643909e-01 
  3.407103261459e-01 
  2.643585741680e-01 
  1.667088359230e-01 
 -7.292654299849e-03 
  5.561827413386e-01 
  6.134181004791e-01 
  6.706534596197e-01 
  5.477224703387e-01 
  6.049578294793e-01 
  5.392621993389e-01 
  5.442439284126e-01 
  5.450479558854e-01 
  5.458519833581e-01 
  4.477774682972e-01 
  4.485814957699e-01 
  3.513110081818e-01 
  3.040215262639e-03 
  1.121128800563e-01 
  2.211855448500e-01 
 -7.134792244800e-04 
  1.083591855692e-01 
 -4.467173711598e-03 
  4.109087898857e-01 
  3.167020249582e-01 
  2.224952600308e-01 
  3.833780762069e-01 
  2.891713112794e-01 
  3.558473625281e-01 
 -1.925233352565e-03 
  6.813591121006e-03 
  1.555241559458e-02 
  2.698864235889e-01 
  2.786252480624e-01 
  5.416980805303e-01 
  5.371766361161e-01 
  2.749988043130e-01 
  1.282097251000e-02 
  5.349800663778e-01 
  2.728022345747e-01 
  5.327834966395e-01 
  3.014492802861e-01 
  2.129981655738e-01 
  1.245470508616e-01 
  4.656570229980e-01 
  3.772059082857e-01 
  6.298647657098e-01 
  2.670762259821e-01 
  1.352858515369e-01 
  3.495477091822e-03 
  2.369048711651e-01 
  1.051144967200e-01 
  2.067335163482e-01 
  7.793807403726e-01 
  3.931668868397e-01 
  6.953033306745e-03 
  4.005468828270e-01 
  1.433302929411e-02 
  2.171302528147e-02 
  7.535978851037e-01 
  3.768444154420e-01 
  9.094578019650e-05 
  3.882513577857e-01 
  1.149788812390e-02 
  2.290483046760e-02 
  4.815406076771e-01 
  2.480576095792e-01 
  1.457461148133e-02 
  4.454985418742e-01 
  2.120155437763e-01 
  4.094564760712e-01 
  5.324840028230e-01 
  2.690754169618e-01 
  5.666831100630e-03 
  6.313387928681e-01 
  3.679302070069e-01 
  7.301935829133e-01 
  6.276109057611e-01 
  5.873655301001e-01 
  5.471201544391e-01 
  5.457800317912e-01 
  5.055346561302e-01 
  4.639491578212e-01 
  8.361902385081e-01 
  4.225669390336e-01 
  8.943639559058e-03 
  4.176658966544e-01 
  4.042597179889e-03 
 -8.584451992795e-04 
  6.649638545116e-01 
  7.022298782531e-01 
  7.394959019945e-01 
  7.266828211220e-01 
  7.639488448635e-01 
  7.884017877324e-01 
  7.276242312671e-01 
  7.009678840492e-01 
  6.743115368312e-01 
  6.363033622210e-01 
  6.096470150031e-01 
  5.449824931750e-01 
  6.132975272443e-01 
  5.271386422946e-01 
  4.409797573449e-01 
  6.034079414318e-01 
  5.172490564820e-01 
  5.935183556192e-01 
  4.445542980755e-01 
  4.686061813639e-01 
  4.926580646523e-01 
  5.184756657974e-01 
  5.425275490858e-01 
  5.923970335193e-01 
  6.031444759894e-01 
  5.994793597691e-01 
  5.958142435487e-01 
  6.945216188515e-01 
  6.908565026311e-01 
  7.858987617135e-01 
  7.869347729184e-01 
  8.325775792882e-01 
  8.782203856579e-01 
  6.932074249689e-01 
  7.388502313386e-01 
  5.994800770193e-01 
  7.893374132400e-01 
  7.696623831162e-01 
  7.499873529924e-01 
  8.136795148512e-01 
  7.940044847274e-01 
  8.380216164624e-01 
  6.562818793739e-01 
  7.179940074549e-01 
  7.797061355360e-01 
  6.260528482761e-01 
  6.877649763572e-01 
  5.958238171784e-01 
  8.307451269769e-01 
  8.158906641061e-01 
  8.010362012353e-01 
  8.612797939832e-01 
  8.464253311124e-01 
  8.918144609894e-01 
  8.353347548762e-01 
  8.038971144592e-01 
  7.724594740422e-01 
  4.340130063969e-01 
  4.025753659800e-01 
  3.269125791768e-02 
  6.315005774280e-01 
  7.581067865084e-01 
  8.847129955888e-01 
  7.773918782216e-01 
  9.039980873020e-01 
  9.232831790152e-01 
  8.838634864394e-01 
  7.551749426675e-01 
  6.264863988956e-01 
  7.394284656173e-01 
  6.107399218455e-01 
  5.949934447953e-01 
  5.118231393964e-01 
  5.641253186942e-01 
  6.164274979921e-01 
  5.950856499544e-01 
  6.473878292523e-01 
  6.783481605124e-01 
  6.159762548815e-01 
  5.633589790025e-01 
  5.107417031235e-01 
  5.257808321441e-01 
  4.731635562651e-01 
  4.355854094067e-01 
  9.016750976609e-01 
  8.973432303837e-01 
  8.930113631064e-01 
  8.484661053770e-01 
  8.441342380997e-01 
  7.952571130930e-01 
  8.357285479129e-01 
  8.567064270208e-01 
  8.776843061287e-01 
  8.118642765743e-01 
  8.328421556822e-01 
  7.880000052358e-01 
  1.178097687717e-02 
  4.062447416378e-01 
  8.007085063985e-01 
  4.208502330183e-01 
  8.153139977790e-01 
  8.299194891595e-01 