# vtk DataFile Version 2
NuDG++ 2D simulation
ASCII
DATASET UNSTRUCTURED_GRID

POINTS 2244 double
 -1.656250060000e-01  -2.000000030000e-01  0.0
 -1.828125045000e-01  -1.772221997500e-01  0.0
 -2.000000030000e-01  -1.544443965000e-01  0.0
 -1.828125045000e-01  -2.000000030000e-01  0.0
 -2.000000030000e-01  -1.772221997500e-01  0.0
 -2.000000030000e-01  -2.000000030000e-01  0.0
 -6.428571790000e-02  -1.700000018000e-01  0.0
 -8.058035746000e-02  -1.850000024000e-01  0.0
 -9.687499702000e-02  -2.000000030000e-01  0.0
 -6.339285895000e-02  -1.850000024000e-01  0.0
 -7.968749851000e-02  -2.000000030000e-01  0.0
 -6.250000000000e-02  -2.000000030000e-01  0.0
 -2.000000030000e-01  -1.544443965000e-01  0.0
 -1.750000045000e-01  -1.379364989500e-01  0.0
 -1.500000060000e-01  -1.214286014000e-01  0.0
 -2.000000030000e-01  -1.316666491500e-01  0.0
 -1.750000045000e-01  -1.151587516000e-01  0.0
 -2.000000030000e-01  -1.088889018000e-01  0.0
 -1.500000060000e-01  -1.214286014000e-01  0.0
 -1.750000045000e-01  -1.379364989500e-01  0.0
 -2.000000030000e-01  -1.544443965000e-01  0.0
 -1.500000060000e-01  -1.457143016000e-01  0.0
 -1.750000045000e-01  -1.622221991500e-01  0.0
 -1.500000060000e-01  -1.700000018000e-01  0.0
 -1.500000060000e-01  -7.285714149000e-02  0.0
 -1.750000045000e-01  -9.087302164500e-02  0.0
 -2.000000030000e-01  -1.088889018000e-01  0.0
 -1.500000060000e-01  -9.714287144500e-02  0.0
 -1.750000045000e-01  -1.151587516000e-01  0.0
 -1.500000060000e-01  -1.214286014000e-01  0.0
  1.832975030000e+00  -4.625000060000e-02  0.0
  1.853987515000e+00  -1.231250018000e-01  0.0
  1.875000000000e+00  -2.000000030000e-01  0.0
  1.916487515000e+00  -7.187499851000e-02  0.0
  1.937500000000e+00  -1.487499997100e-01  0.0
  2.000000000000e+00  -9.749999642000e-02  0.0
 -1.500000060000e-01  -1.700000018000e-01  0.0
 -1.360000037000e-01  -1.525000036000e-01  0.0
 -1.220000014000e-01  -1.350000054000e-01  0.0
 -1.500000060000e-01  -1.457143016000e-01  0.0
 -1.360000037000e-01  -1.282143034000e-01  0.0
 -1.500000060000e-01  -1.214286014000e-01  0.0
  2.849999964000e-01  -2.333333530000e-02  0.0
  2.837499976000e-01  -8.166666795000e-02  0.0
  2.824999988000e-01  -1.400000006000e-01  0.0
  3.174999952000e-01  -4.666666780000e-02  0.0
  3.162499964000e-01  -1.050000004500e-01  0.0
  3.499999940000e-01  -7.000000030000e-02  0.0
 -1.071429029000e-01  -1.700000018000e-01  0.0
 -8.571431040000e-02  -1.700000018000e-01  0.0
 -6.428571790000e-02  -1.700000018000e-01  0.0
 -9.857145324000e-02  -1.525000036000e-01  0.0
 -7.714286074000e-02  -1.525000036000e-01  0.0
 -9.000000358000e-02  -1.350000054000e-01  0.0
 -1.312499940000e-01  -2.000000030000e-01  0.0
 -1.191964484500e-01  -1.850000024000e-01  0.0
 -1.071429029000e-01  -1.700000018000e-01  0.0
 -1.406250000000e-01  -1.850000024000e-01  0.0
 -1.285714544500e-01  -1.700000018000e-01  0.0
 -1.500000060000e-01  -1.700000018000e-01  0.0
 -1.220000014000e-01  -1.350000054000e-01  0.0
 -1.060000024900e-01  -1.350000054000e-01  0.0
 -9.000000358000e-02  -1.350000054000e-01  0.0
 -1.185000017500e-01  -1.175000034500e-01  0.0
 -1.025000028400e-01  -1.175000034500e-01  0.0
 -1.150000021000e-01  -1.000000015000e-01  0.0
 -9.000000358000e-02  -1.350000054000e-01  0.0
 -1.060000024900e-01  -1.350000054000e-01  0.0
 -1.220000014000e-01  -1.350000054000e-01  0.0
 -9.857145324000e-02  -1.525000036000e-01  0.0
 -1.145714521500e-01  -1.525000036000e-01  0.0
 -1.071429029000e-01  -1.700000018000e-01  0.0
 -7.778175920000e-02  -9.192386270000e-02  0.0
 -9.639088065000e-02  -9.596193210000e-02  0.0
 -1.150000021000e-01  -1.000000015000e-01  0.0
 -8.389088139000e-02  -1.134619340500e-01  0.0
 -1.025000028400e-01  -1.175000034500e-01  0.0
 -9.000000358000e-02  -1.350000054000e-01  0.0
 -1.220000014000e-01  -1.350000054000e-01  0.0
 -1.185000017500e-01  -1.175000034500e-01  0.0
 -1.150000021000e-01  -1.000000015000e-01  0.0
 -1.360000037000e-01  -1.282143034000e-01  0.0
 -1.325000040500e-01  -1.107143014500e-01  0.0
 -1.500000060000e-01  -1.214286014000e-01  0.0
 -7.778175920000e-02  -9.192386270000e-02  0.0
 -8.389088139000e-02  -1.134619340500e-01  0.0
 -9.000000358000e-02  -1.350000054000e-01  0.0
 -6.639088876500e-02  -1.022535823500e-01  0.0
 -7.250001095500e-02  -1.237916537000e-01  0.0
 -5.500001833000e-02  -1.125833020000e-01  0.0
 -1.071429029000e-01  -1.700000018000e-01  0.0
 -1.145714521500e-01  -1.525000036000e-01  0.0
 -1.220000014000e-01  -1.350000054000e-01  0.0
 -1.285714544500e-01  -1.700000018000e-01  0.0
 -1.360000037000e-01  -1.525000036000e-01  0.0
 -1.500000060000e-01  -1.700000018000e-01  0.0
  6.250000093000e-03  -2.000000030000e-01  0.0
  4.062500153650e-02  -2.000000030000e-01  0.0
  7.500000298000e-02  -2.000000030000e-01  0.0
  1.383928512150e-02  -1.850000024000e-01  0.0
  4.821428656500e-02  -1.850000024000e-01  0.0
  2.142857015000e-02  -1.700000018000e-01  0.0
 -1.500000060000e-01  -7.285714149000e-02  0.0
 -1.500000060000e-01  -9.714287144500e-02  0.0
 -1.500000060000e-01  -1.214286014000e-01  0.0
 -1.325000040500e-01  -8.642857149500e-02  0.0
 -1.325000040500e-01  -1.107143014500e-01  0.0
 -1.150000021000e-01  -1.000000015000e-01  0.0
 -2.000000030000e-01  -6.333333254000e-02  0.0
 -1.750000045000e-01  -6.809523701500e-02  0.0
 -1.500000060000e-01  -7.285714149000e-02  0.0
 -1.750000045000e-01  -4.380952660000e-02  0.0
 -1.500000060000e-01  -4.857143107500e-02  0.0
 -1.500000060000e-01  -2.428572066000e-02  0.0
 -2.000000030000e-01  -6.333333254000e-02  0.0
 -2.000000030000e-01  -8.611111717000e-02  0.0
 -2.000000030000e-01  -1.088889018000e-01  0.0
 -1.750000045000e-01  -6.809523701500e-02  0.0
 -1.750000045000e-01  -9.087302164500e-02  0.0
 -1.500000060000e-01  -7.285714149000e-02  0.0
 -2.000000030000e-01  -6.333333254000e-02  0.0
 -1.750000045000e-01  -4.380952660000e-02  0.0
 -1.500000060000e-01  -2.428572066000e-02  0.0
 -2.000000030000e-01  -4.055555630500e-02  0.0
 -1.750000045000e-01  -2.103175036500e-02  0.0
 -2.000000030000e-01  -1.777778007000e-02  0.0
 -1.500000060000e-01  -2.428572066000e-02  0.0
 -1.500000060000e-01  -4.857143107500e-02  0.0
 -1.500000060000e-01  -7.285714149000e-02  0.0
 -1.281259023000e-01  -2.896608505500e-02  0.0
 -1.281259023000e-01  -5.325179547000e-02  0.0
 -1.062517986000e-01  -3.364644945000e-02  0.0
 -1.099999994000e-01   1.996667010000e-08  0.0
 -1.300000027000e-01  -1.214285034666e-02  0.0
 -1.500000060000e-01  -2.428572066000e-02  0.0
 -1.081258990000e-01  -1.682321474166e-02  0.0
 -1.281259023000e-01  -2.896608505500e-02  0.0
 -1.062517986000e-01  -3.364644945000e-02  0.0
 -1.500000060000e-01  -2.428572066000e-02  0.0
 -1.500000060000e-01   0.000000000000e+00  0.0
 -1.500000060000e-01   2.428572066000e-02  0.0
 -1.750000045000e-01  -2.103175036500e-02  0.0
 -1.750000045000e-01   3.253970295000e-03  0.0
 -2.000000030000e-01  -1.777778007000e-02  0.0
 -1.500000060000e-01  -7.285714149000e-02  0.0
 -1.226314045700e-01  -6.892856210000e-02  0.0
 -9.526280314000e-02  -6.499998271000e-02  0.0
 -1.281259023000e-01  -5.325179547000e-02  0.0
 -1.007573008700e-01  -4.932321608000e-02  0.0
 -1.062517986000e-01  -3.364644945000e-02  0.0
  3.499999940000e-01   1.400000006000e-01  0.0
  4.021931737500e-01   1.224999986500e-01  0.0
  4.543863535000e-01   1.049999967000e-01  0.0
  4.187500029500e-01   1.749999970000e-01  0.0
  4.709431827000e-01   1.574999950500e-01  0.0
  4.875000119000e-01   2.099999934000e-01  0.0
 -7.101409137000e-02  -4.349999130000e-02  0.0
 -8.313844725500e-02  -5.424998700500e-02  0.0
 -9.526280314000e-02  -6.499998271000e-02  0.0
 -6.449843011500e-02  -5.250913650000e-02  0.0
 -7.662278600000e-02  -6.325913220500e-02  0.0
 -5.798276886000e-02  -6.151828170000e-02  0.0
 -9.526280314000e-02  -6.499998271000e-02  0.0
 -1.226314045700e-01  -6.892856210000e-02  0.0
 -1.500000060000e-01  -7.285714149000e-02  0.0
 -1.051314026200e-01  -8.249999210500e-02  0.0
 -1.325000040500e-01  -8.642857149500e-02  0.0
 -1.150000021000e-01  -1.000000015000e-01  0.0
 -6.181925908000e-02  -1.656441018000e-02  0.0
 -7.051259093000e-02  -1.954082492500e-02  0.0
 -7.920592278000e-02  -2.251723967000e-02  0.0
 -5.862244405000e-02  -2.428220026000e-02  0.0
 -6.731577590000e-02  -2.725861500500e-02  0.0
 -5.542562902000e-02  -3.199999034000e-02  0.0
 -7.920592278000e-02  -2.251723967000e-02  0.0
 -9.272886069000e-02  -2.808184456000e-02  0.0
 -1.062517986000e-01  -3.364644945000e-02  0.0
 -7.511000707500e-02  -3.300861548500e-02  0.0
 -8.863294498500e-02  -3.857322037500e-02  0.0
 -7.101409137000e-02  -4.349999130000e-02  0.0
 -7.101409137000e-02  -4.349999130000e-02  0.0
 -6.321986019500e-02  -3.774999082000e-02  0.0
 -5.542562902000e-02  -3.199999034000e-02  0.0
 -7.511000707500e-02  -3.300861548500e-02  0.0
 -6.731577590000e-02  -2.725861500500e-02  0.0
 -7.920592278000e-02  -2.251723967000e-02  0.0
 -7.920592278000e-02  -2.251723967000e-02  0.0
 -9.460296109000e-02  -1.125860985166e-02  0.0
 -1.099999994000e-01   1.996667010000e-08  0.0
 -9.272886069000e-02  -2.808184456000e-02  0.0
 -1.081258990000e-01  -1.682321474166e-02  0.0
 -1.062517986000e-01  -3.364644945000e-02  0.0
 -7.778175920000e-02  -9.192386270000e-02  0.0
 -6.788226403000e-02  -7.672107220000e-02  0.0
 -5.798276886000e-02  -6.151828170000e-02  0.0
 -8.652228117000e-02  -7.846192270500e-02  0.0
 -7.662278600000e-02  -6.325913220500e-02  0.0
 -9.526280314000e-02  -6.499998271000e-02  0.0
 -7.101409137000e-02  -4.349999130000e-02  0.0
 -8.863294498500e-02  -3.857322037500e-02  0.0
 -1.062517986000e-01  -3.364644945000e-02  0.0
 -8.313844725500e-02  -5.424998700500e-02  0.0
 -1.007573008700e-01  -4.932321608000e-02  0.0
 -9.526280314000e-02  -6.499998271000e-02  0.0
 -7.778175920000e-02  -9.192386270000e-02  0.0
 -8.652228117000e-02  -7.846192270500e-02  0.0
 -9.526280314000e-02  -6.499998271000e-02  0.0
 -9.639088065000e-02  -9.596193210000e-02  0.0
 -1.051314026200e-01  -8.249999210500e-02  0.0
 -1.150000021000e-01  -1.000000015000e-01  0.0
[...]
POINT_DATA 2244
SCALARS field1 double 1
LOOKUP_TABLE default
  2.074682396797e-03 
  5.747915733794e-02 
  1.128836322791e-01 
  1.210553473553e-03 
  5.661502841470e-02 
  3.464245503099e-04 
  2.204909370529e-01 
  1.107402002851e-01 
  9.894635173726e-04 
  1.110823382224e-01 
  1.331601454616e-03 
  1.673739391860e-03 
  1.112431949338e-01 
  1.439880368054e-01 
  1.767328786770e-01 
  1.536644025265e-01 
  1.864092443981e-01 
  1.960856101191e-01 
  1.783519139359e-01 
  1.441848861403e-01 
  1.100178583447e-01 
  1.421499039164e-01 
  1.079828761208e-01 
  1.059478938969e-01 
  2.405767739314e-01 
  2.183880296321e-01 
  1.961992853329e-01 
  2.101395107762e-01 
  1.879507664769e-01 
  1.797022476210e-01 
  2.446518562445e-01 
  1.391391558901e-01 
  3.362645553571e-02 
  2.332212208736e-01 
  1.277085205193e-01 
  2.217905855028e-01 
  1.071287873984e-01 
  1.456196735008e-01 
  1.841105596031e-01 
  1.432993714674e-01 
  1.817902575698e-01 
  1.794699555365e-01 
  2.130983456529e-01 
  2.248220830041e-01 
  2.365458203553e-01 
  2.200706261774e-01 
  2.317943635286e-01 
  2.270429067019e-01 
  1.690910559165e-01 
  1.932599613474e-01 
  2.174288667783e-01 
  1.885172722175e-01 
  2.126861776484e-01 
  2.079434885184e-01 
  1.880394558191e-03 
  8.535807856918e-02 
  1.688357625802e-01 
  5.341204793881e-02 
  1.368897319498e-01 
  1.049437013194e-01 
  1.807448103465e-01 
  1.921164174328e-01 
  2.034880245192e-01 
  1.982756458522e-01 
  2.096472529386e-01 
  2.158064813580e-01 
  2.054276926091e-01 
  1.931599764905e-01 
  1.808922603719e-01 
  1.873819854429e-01 
  1.751142693242e-01 
  1.693362782766e-01 
  2.434945173598e-01 
  2.292592787604e-01 
  2.150240401611e-01 
  2.244142881000e-01 
  2.101790495007e-01 
  2.053340588403e-01 
  1.813605783407e-01 
  1.996776191915e-01 
  2.179946600422e-01 
  1.815410838512e-01 
  1.998581247020e-01 
  1.817215893618e-01 
  2.438052290243e-01 
  2.253876679621e-01 
  2.069701068998e-01 
  2.548414172697e-01 
  2.364238562075e-01 
  2.658776055152e-01 
  1.676102189723e-01 
  1.755419436941e-01 
  1.834736684159e-01 
  1.370821906793e-01 
  1.450139154011e-01 
  1.065541623863e-01 
  1.630385213558e-03 
  2.331228539315e-03 
  3.032071865072e-03 
  1.321437997927e-01 
  1.328446431185e-01 
  2.626572143718e-01 
  2.401804984465e-01 
  2.108309909383e-01 
  1.814814834302e-01 
  2.296742108653e-01 
  2.003247033571e-01 
  2.191679232841e-01 
  2.544394871001e-01 
  2.462382326248e-01 
  2.380369781496e-01 
  2.590828500442e-01 
  2.508815955689e-01 
  2.637262129882e-01 
  2.535631313310e-01 
  2.254634322975e-01 
  1.973637332640e-01 
  2.464073692355e-01 
  2.183076702019e-01 
  2.392516071399e-01 
  2.551027781054e-01 
  2.597148233271e-01 
  2.643268685489e-01 
  2.690547368679e-01 
  2.736667820897e-01 
  2.830066956304e-01 
  2.631759468507e-01 
  2.515835796589e-01 
  2.399912124670e-01 
  2.374002678830e-01 
  2.258079006911e-01 
  2.116245889152e-01 
  1.905157007791e-01 
  2.268538456092e-01 
  2.631919904393e-01 
  2.003501531248e-01 
  2.366882979549e-01 
  2.101846054705e-01 
  2.605519926972e-01 
  2.617303784998e-01 
  2.629087643024e-01 
  2.722869314759e-01 
  2.734653172784e-01 
  2.840218702545e-01 
  2.394852325358e-01 
  2.294806718534e-01 
  2.194761111711e-01 
  2.251294014730e-01 
  2.151248407906e-01 
  2.107735704101e-01 
  2.381339735411e-01 
  2.531233761546e-01 
  2.681127787681e-01 
  1.392826360952e-01 
  1.542720387086e-01 
  4.043129864922e-02 
  1.819829279127e-01 
  2.026946365671e-01 
  2.234063452215e-01 
  2.099801877491e-01 
  2.306918964035e-01 
  2.379774475855e-01 
  2.204744073415e-01 
  2.300158810665e-01 
  2.395573547915e-01 
  2.199027738817e-01 
  2.294442476067e-01 
  2.193311404219e-01 
  6.309989101096e-02 
  1.021084993227e-01 
  1.411171076345e-01 
  8.252759290654e-02 
  1.215362012183e-01 
  1.019552948021e-01 
  1.380252689110e-01 
  1.735251875427e-01 
  2.090251061745e-01 
  1.599063522462e-01 
  1.954062708780e-01 
  1.817874355814e-01 
  1.814729689802e-01 
  1.426330345845e-01 
  1.037931001889e-01 
  1.605121096964e-01 
  1.216721753008e-01 
  1.395512504127e-01 
  1.370094617413e-01 
  1.626775559236e-01 
  1.883456501060e-01 
  1.733354107107e-01 
  1.990035048930e-01 
  2.096613596800e-01 
  2.444831677581e-01 
  2.420386772355e-01 
  2.395941867129e-01 
  2.335438920043e-01 
  2.310994014817e-01 
  2.226046162504e-01 
  1.829975327492e-01 
  1.960631793010e-01 
  2.091288258528e-01 
  2.031599258074e-01 
  2.162255723592e-01 
  2.233223188656e-01 
  2.419894486346e-01 
  2.318075558451e-01 
  2.216256630557e-01 
  2.294233020431e-01 
  2.192414092537e-01 
  2.168571554516e-01 
  1.398193531149e-01 
  1.017485819134e-01 
  6.367781071183e-02 
  1.285926997706e-01 
  9.052192856913e-02 
  1.173660464264e-01 
  2.639498051429e-01 
  2.361967100301e-01 
  2.084436149173e-01 
  2.408825596959e-01 
  2.131294645831e-01 
  2.178153142489e-01 
  2.245831273760e-01 
  2.289957795274e-01 
  2.334084316788e-01 
  2.127568608901e-01 
  2.171695130415e-01 
  2.009305944042e-01 
  2.780308232195e-01 
  2.642677624621e-01 
  2.505047017046e-01 
  2.871385205684e-01 
  2.733754598110e-01 
  2.962462179173e-01 
  2.752550035718e-01 
  2.686913737028e-01 
  2.621277438339e-01 
  2.466877846247e-01 
  2.401241547557e-01 
  2.181205656775e-01 
  2.435474443321e-01 
  2.653640223461e-01 
  2.871806003601e-01 
  2.413874908930e-01 
  2.632040689070e-01 
  2.392275374538e-01 
  2.881909375306e-01 
  2.658610904641e-01 
  2.435312433975e-01 
  2.769465912613e-01 
  2.546167441948e-01 
  2.657022449920e-01 
  3.320464607411e-01 
  3.111474142243e-01 
  2.902483677075e-01 
  2.975404698567e-01 
  2.766414233400e-01 
  2.630344789724e-01 
  2.416954985455e-01 
  2.400893648066e-01 
  2.384832310676e-01 
  2.663536181737e-01 
  2.647474844347e-01 
  2.910117378019e-01 
  2.613967871984e-01 
  2.692719571270e-01 
  2.771471270556e-01 
  2.971089916858e-01 
  3.049841616145e-01 
  3.328211961733e-01 
  2.772355380739e-01 
  2.478701079228e-01 
  2.185046777717e-01 
  2.634831984648e-01 
  2.341177683137e-01 
  2.497308588557e-01 
  3.537639720907e-01 
  3.441415689199e-01 
  3.345191657492e-01 
  3.161618079628e-01 
  3.065394047920e-01 
  2.785596438348e-01 
  1.374414351541e-03 
  1.360351443583e-01 
  2.706958743652e-01 
  4.952058174666e-04 
  1.351559358243e-01 
 -3.840027166081e-04 
  3.390461794717e-01 
  3.061263743116e-01 
  2.732065691516e-01 
  3.049630431061e-01 
  2.720432379461e-01 
  2.708799067405e-01 
  2.736476850544e-01 
  3.060910842887e-01 
  3.385344835229e-01 
  3.124992155736e-01 
  3.449426148079e-01 
  3.513507460928e-01 
  2.698693111054e-01 
  2.712971644404e-01 
  2.727250177755e-01 
  1.373142565673e-01 
  1.387421099023e-01 
  4.759202029137e-03 
  3.349317956253e-01 
  3.043952155330e-01 
  2.738586354408e-01 
  3.136894427627e-01 
  2.831528626705e-01 
  2.924470899002e-01 
  3.337505206593e-01 
  3.019285962741e-01 
  2.701066718889e-01 
  3.425299585345e-01 
  3.107080341493e-01 
  3.513093964097e-01 
  3.522816859475e-01 
  3.158729733790e-01 
  2.794642608105e-01 
  3.226736674872e-01 
  2.862649549186e-01 
  2.930656490268e-01 
  2.504222174316e-01 
  2.531880885915e-01 
  2.559539597515e-01 
  2.733784117875e-01 
  2.761442829474e-01 
  2.963346061434e-01 
  2.403589792153e-01 
  2.672294827912e-01 
  2.940999863671e-01 
  2.564406802568e-01 
  2.833111838327e-01 
  2.725223812984e-01 
 -1.288699791466e-03 
  5.229569991798e-02 
  1.058800996274e-01 
  1.989251918402e-03 
  5.557365162785e-02 
  5.267203628271e-03 
  1.046865202457e-01 
  1.421733606767e-01 
  1.796602011078e-01 
  1.423496677238e-01 
  1.798365081549e-01 
  1.800128152019e-01 
  2.151467868542e-01 
  1.108303841543e-01 
  6.513981454317e-03 
  1.070239651968e-01 
  2.707562496839e-03 
 -1.098856460640e-03 
 -3.398837012704e-03 
  9.134688941326e-03 
  2.166821489536e-02 
  2.927450003042e-02 
  4.180802598445e-02 
  6.194783707354e-02 
  8.944208650048e-04 
 -1.761611840719e-03 
 -4.417644546444e-03 
  5.011055398593e-02 
  4.745452128021e-02 
  9.932668710686e-02 
  1.864332520286e-01 
  9.404267731453e-02 
  1.652102600464e-03 
  1.538714649505e-01 
  6.148089023643e-02 
  1.213096778724e-01 
  1.053350036203e-01 
  1.444739426836e-01 
  1.836128817468e-01 
  5.617569105694e-02 
  9.531463012020e-02 
  7.016378493561e-03 
 -5.618093327157e-03 
  2.810705089677e-02 
  6.183219512070e-02 
  4.683407619016e-02 
  8.055922041409e-02 
  9.928624570748e-02 
  2.091175849545e-03 
  2.266295151756e-03 
  2.441414453967e-03 
  1.372790073323e-01 
  1.374541266345e-01 
  2.724668388150e-01 
  3.447393336174e-03 
  1.392739405988e-01 
  2.751004878615e-01 
  2.774452223014e-03 
  1.386009994857e-01 
  2.101511109853e-03 
  2.635438126663e-01 
  1.357211515862e-01 
  7.898490506177e-03 
  2.475544391025e-01 
  1.197317780224e-01 
  2.315650655386e-01 
  1.459171404525e-03 
  9.589752903294e-02 
  1.903358866614e-01 
  3.739216234903e-03 
  9.817757386332e-02 
  6.019261065280e-03 
  5.602611802007e-03 
  1.230326666583e-01 
  2.404627215146e-01 
  1.379563969134e-01 
  2.553864517697e-01 
  2.703101820249e-01 
  2.514257965973e-01 
  1.296377910570e-01 
  7.849785516652e-03 
  2.540416950342e-01 
  1.322536894938e-01 
  2.566575934710e-01 
  1.725540769958e-01 
  8.666895603163e-02 
  7.838350674860e-04 
  8.794778356333e-02 
  2.062662599187e-03 
  3.341490130889e-03 
  9.563713743037e-03 
  9.865915991806e-02 
  1.877546060931e-01 
  1.245380654429e-01 
  2.136335116180e-01 
  2.395124171428e-01 
  1.831674435613e-01 
  2.112368957778e-01 
  2.393063479943e-01 
  2.118900732505e-01 
  2.399595254670e-01 
  2.406127029397e-01 
  2.221434248677e-01 
  1.147800229741e-01 
  7.416621080564e-03 
  2.347250516226e-01 
  1.273616497290e-01 
  2.473066783775e-01 
  3.506412576723e-01 
  3.216591806638e-01 
  2.926771036553e-01 
  3.227558934080e-01 
  2.937738163995e-01 
  2.948705291436e-01 
  1.807322477203e-01 
  1.799722868835e-01 
  1.792123260468e-01 
  2.100902683384e-01 
  2.093303075017e-01 
  2.394482889566e-01 
  1.139277470918e-03 
  3.061562317088e-03 
  4.983847163257e-03 
  1.133390649766e-01 
  1.152613498228e-01 
  2.255388524824e-01 
  1.924580157407e-02 
  8.850680478794e-03 
 -1.544440616485e-03 
  8.657441143768e-03 
 -1.737679951511e-03 
 -1.930919286537e-03 
  2.557658743778e-01 
  2.589167043905e-01 
  2.620675344031e-01 
  2.344657344651e-01 
  2.376165644778e-01 
  2.131655945525e-01 
  2.644744907240e-01 
  2.734237936680e-01 
  2.823730966120e-01 
  2.743060874287e-01 
  2.832553903727e-01 
  2.841376841334e-01 
  2.809923867058e-01 
  2.677139122674e-01 
  2.544354378289e-01 
  2.676115059052e-01 
  2.543330314668e-01 
  2.542306251047e-01 
  2.536477847294e-01 
  2.672320185522e-01 
  2.808162523751e-01 
  2.576766991731e-01 
  2.712609329959e-01 
  2.617056136168e-01 
  2.537108232156e-01 
  2.548847626357e-01 
  2.560587020558e-01 
  2.256796237545e-01 
  2.268535631746e-01 
  1.976484242934e-01 
  1.723103197063e-02 
  3.685650291546e-03 
 -9.859731387539e-03 
  1.208168295947e-01 
  1.072714479156e-01 
  2.244026272187e-01 
  2.632954276784e-01 
  2.272232877332e-01 
  1.911511477880e-01 
  2.372633849873e-01 
  2.011912450421e-01 
  2.112313422962e-01 
  2.625221711463e-01 
  2.619909026855e-01 
  2.614596342247e-01 
  2.272956491522e-01 
  2.267643806914e-01 
  1.920691271580e-01 
  1.349084449234e-01 
  1.725940884792e-01 
  2.102797320349e-01 
  1.621547387508e-01 
  1.998403823066e-01 
  1.894010325782e-01 
  1.918009764740e-01 
  1.639165714663e-01 
  1.360321664585e-01 
  1.525366149273e-01 
  1.246522099196e-01 
  1.132722533806e-01 
  2.089490183981e-01 
  1.989008106593e-01 
  1.888526029205e-01 
  2.143879617697e-01 
  2.043397540309e-01 
  2.198269051412e-01 
  1.885558686567e-01 
  1.985061986837e-01 
  2.084565287107e-01 
  1.622481952465e-01 
  1.721985252735e-01 
  1.359405218363e-01 
  2.412558610197e-01 
  2.299536845554e-01 
  2.186515080912e-01 
  2.444992623638e-01 
  2.331970858996e-01 
  2.477426637079e-01 
  2.118940940061e-01 
  2.149871019862e-01 
  2.180801099663e-01 
  2.340637868428e-01 
  2.371567948229e-01 
  2.562334796795e-01 
  1.365277594651e-01 
  1.266374513507e-01 
  1.167471432364e-01 
  9.951925001491e-02 
  8.962894190054e-02 
  6.251074056471e-02 
  1.350147444239e-01 
  1.620173154788e-01 
  1.890198865337e-01 
  1.262062607186e-01 
  1.532088317735e-01 
  1.173977770133e-01 
  1.882179235821e-01 
  1.627441193257e-01 
  1.372703150693e-01 
  1.530374006342e-01 
  1.275635963778e-01 
  1.178568776862e-01 
  2.559542852011e-01 
  2.375314152694e-01 
  2.191085453377e-01 
  2.428835042968e-01 
  2.244606343651e-01 
  2.298127233924e-01 
  1.960775000465e-01 
  1.910298084639e-01 
  1.859821168814e-01 
  1.538659923150e-01 
  1.488183007325e-01 
  1.116544845836e-01 
  1.965939967678e-01 
  2.267578844392e-01 
  2.569217721107e-01 
  1.925765716948e-01 
  2.227404593663e-01 
  1.885591466218e-01 
  1.108574831245e-01 
  1.175089895579e-01 
  1.241604959913e-01 
  5.563440011228e-02 
  6.228590654566e-02 
  4.113171000143e-04 
  1.256515650228e-01 
  1.181492419716e-01 
  1.106469189204e-01 
  1.566151976450e-01 
  1.491128745938e-01 
  1.875788302672e-01 
  1.974070346541e-01 
  1.022377084149e-01 
  7.068382175739e-03 
  9.828370469267e-02 
  3.114378453474e-03 
 -8.396252687902e-04 
  1.805519401918e-02 
  1.041814650864e-02 
  2.781098998114e-03 
  1.353544403074e-01 
  1.277173927969e-01 
  2.526536865957e-01 
  1.896393498276e-01 
  1.888091420116e-01 
  1.879789341955e-01 
  1.575044371494e-01 
  1.566742293333e-01 
  1.253695244712e-01 
  2.279602766763e-01 
  1.124465888084e-01 
 -3.067099059412e-03 
  1.245850149431e-01 
  9.071327075288e-03 
  2.120975320999e-02 
  2.256720685544e-01 
  2.323329717533e-01 
  2.389938749522e-01 
  2.202982229146e-01 
  2.269591261135e-01 
  2.149243772747e-01 
  2.382280463450e-01 
  2.329868746010e-01 
  2.277457028570e-01 
  2.291188583954e-01 
  2.238776866514e-01 
  2.200096704457e-01 
  1.831117270754e-01 
  2.004980633138e-01 
  2.178843995522e-01 
  1.859350051575e-01 
  2.033213413960e-01 
  1.887582832397e-01 
  2.136315772515e-01 
  1.995587686842e-01 
  1.854859601169e-01 
  2.200607649698e-01 
  2.059879564025e-01 
  2.264899526881e-01 
  1.925391770076e-01 
  2.061734178150e-01 
  2.198076586225e-01 
  2.155224238364e-01 
  2.291566646438e-01 
  2.385056706652e-01 
  1.864326269196e-01 
  1.853349077154e-01 
  1.842371885112e-01 
  1.549372362408e-01 
  1.538395170366e-01 
  1.234418455620e-01 
  2.388913463955e-01 
  2.509262924687e-01 
  2.629612385420e-01 
  2.278732693823e-01 
  2.399082154556e-01 
  2.168551923692e-01 
  2.291136315399e-01 
  2.078484014021e-01 
  1.865831712643e-01 
  2.102924316620e-01 
  1.890272015242e-01 
  1.914712317841e-01 
  2.561289863155e-01 
  2.430548000415e-01 
  2.299806137674e-01 
  2.234319612623e-01 
  2.103577749882e-01 
  1.907349362090e-01 
  1.967952393905e-01 
  2.160021397188e-01 
  2.352090400470e-01 
  1.034667414897e-01 
  1.226736418179e-01 
  1.013824358888e-02 
  2.182031850180e-01 
  2.042137768703e-01 
  1.902243687225e-01 
  2.325822051988e-01 
  2.185927970511e-01 
  2.469612253797e-01 
  5.248532839815e-02 
  1.460479467718e-01 
  2.396105651454e-01 
  1.195477576090e-01 
  2.131103759827e-01 
  1.866101868199e-01 
  2.092312440438e-02 
  9.764736092036e-03 
 -1.393652220310e-03 
  4.169696269862e-02 
  3.053857438628e-02 
  6.247080099286e-02 
  1.906811664546e-02 
  8.412871070971e-03 
 -2.242374503517e-03 
  9.181591597358e-03 
 -1.473653977129e-03 
 -7.049334507416e-04 
  6.323634466743e-02 
  3.192776565210e-02 
  6.191866367679e-04 
  8.642752184893e-02 
  5.511894283360e-02 
  1.096186990304e-01 
  1.671428718844e-01 
  1.387410855548e-01 
  1.103392992251e-01 
  8.270057690639e-02 
  5.429879057674e-02 
 -1.741718071648e-03 
  1.718087693600e-01 
  2.105489427439e-01 
  2.492891161277e-01 
  1.821623319758e-01 
  2.209025053596e-01 
  1.925158945916e-01 
  1.697262941495e-01 
  1.819075902763e-01 
  1.940888864031e-01 
  1.407848922655e-01 
  1.529661883924e-01 
  1.118434903816e-01 
  9.841722820405e-04 
  3.207184756488e-02 
  6.315952284771e-02 
 -6.095989955495e-06 
  3.108157929288e-02 
 -9.963642619515e-04 
  1.371919782480e-01 
  9.998289213726e-02 
  6.277380602650e-02 
  1.243843382421e-01 
  8.717525213130e-02 
  1.115766982361e-01 
 -1.088590870550e-03 
  6.796204415846e-04 
  2.447831753719e-03 
  8.334355135954e-02 
  8.511176267167e-02 
  1.677756935896e-01 
  2.597046466039e-01 
  1.332513998153e-01 
  6.798153026672e-03 
  2.493894911676e-01 
  1.229362443789e-01 
  2.390743357312e-01 
  2.122189910058e-01 
  1.541482855380e-01 
  9.607758007023e-02 
  2.346993826067e-01 
  1.766286771389e-01 
  2.571797742076e-01 
  1.117635387204e-01 
  5.699287165713e-02 
  2.222204593822e-03 
  1.078022543538e-01 
  5.303158729047e-02 
  1.038409699871e-01 
  2.485493418768e-01 
  1.250054159467e-01 
  1.461490016512e-03 
  1.271962879485e-01 
  3.652362018303e-03 
  5.843234020093e-03 
  2.419591831979e-01 
  1.203358996002e-01 
 -1.287383997522e-03 
  1.231221641042e-01 
  1.498880506486e-03 
  4.285145010494e-03 
  2.137870841973e-01 
  1.094883641217e-01 
  5.189644046167e-03 
  1.996295130458e-01 
  9.533079297027e-02 
  1.854719418944e-01 
  1.670241444294e-01 
  8.370654386222e-02 
  3.889432950728e-04 
  2.021686442255e-01 
  1.188510436583e-01 
  2.373131440216e-01 
  2.220043414749e-01 
  2.229484692295e-01 
  2.238925969840e-01 
  2.267734200562e-01 
  2.277175478107e-01 
  2.315424986375e-01 
  2.788677959952e-01 
  1.407936407491e-01 
  2.719485503043e-03 
  1.407801890709e-01 
  2.706033824802e-03 
  2.692582146561e-03 
  2.480889899690e-01 
  2.435976653809e-01 
  2.391063407928e-01 
  2.713249484663e-01 
  2.668336238782e-01 
  2.945609069636e-01 
  2.365472557278e-01 
  2.433231987685e-01 
  2.500991418092e-01 
  2.030309428149e-01 
  2.098068858556e-01 
  1.695146299019e-01 
  2.726581213315e-01 
  2.533317164368e-01 
  2.340053115422e-01 
  2.668051338490e-01 
  2.474787289543e-01 
  2.609521463665e-01 
  2.365576673158e-01 
  2.282392034359e-01 
  2.199207395561e-01 
  2.486951778267e-01 
  2.403767139469e-01 
  2.608326883377e-01 
  2.642037999392e-01 
  2.519621597808e-01 
  2.397205196224e-01 
  2.789492045888e-01 
  2.667075644304e-01 
  2.936946092385e-01 
  2.942561038736e-01 
  3.153809353165e-01 
  3.365057667594e-01 
  2.787070364359e-01 
  2.998318678788e-01 
  2.631579689982e-01 
  2.944915907680e-01 
  2.679357197426e-01 
  2.413798487172e-01 
  2.848208270909e-01 
  2.582649560655e-01 
  2.751500634138e-01 
  2.478851814296e-01 
  2.702481914599e-01 
  2.926112014902e-01 
  2.440756499443e-01 
  2.664386599746e-01 
  2.402661184590e-01 
  2.744902520345e-01 
  2.740727629592e-01 
  2.736552738839e-01 
  3.075751032127e-01 
  3.071576141374e-01 
  3.406599543910e-01 
  2.754400828248e-01 
  2.606521706410e-01 
  2.458642584571e-01 
  1.422171742046e-01 
  1.274292620208e-01 
  8.994265584504e-03 
  2.792868360495e-01 
  3.088577237920e-01 
  3.384286115345e-01 
  3.152163491495e-01 
  3.447872368920e-01 
  3.511458622495e-01 
  3.378245678624e-01 
  3.076034219887e-01 
  2.773822761150e-01 
  2.996628593350e-01 
  2.694417134613e-01 
  2.615011508077e-01 
  2.628435350505e-01 
  2.694375177567e-01 
  2.760315004629e-01 
  2.810581928211e-01 
  2.876521755272e-01 
  2.992728505916e-01 
  2.745459966978e-01 
  2.684123821274e-01 
  2.622787675571e-01 
  2.532839138051e-01 
  2.471502992347e-01 
  2.320218309124e-01 
  3.479888351299e-01 
  3.442499478771e-01 
  3.405110606244e-01 
  3.107493876373e-01 
  3.070105003846e-01 
  2.735099401448e-01 
  2.753212706618e-01 
  3.063665964000e-01 
  3.374119221382e-01 
  2.844856422679e-01 
  3.155309680061e-01 
  2.936500138740e-01 
  6.599840510967e-03 
  1.395677667154e-01 
  2.725356929199e-01 
  1.415122107394e-01 
  2.744801369439e-01 
  2.764245809679e-01 