# vtk DataFile Version 2
NuDG++ 2D simulation
ASCII
DATASET UNSTRUCTURED_GRID

POINTS 2244 double
 -1.656250060000e-01  -2.000000030000e-01  0.0
 -1.828125045000e-01  -1.772221997500e-01  0.0
 -2.000000030000e-01  -1.544443965000e-01  0.0
 -1.828125045000e-01  -2.000000030000e-01  0.0
 -2.000000030000e-01  -1.772221997500e-01  0.0
 -2.000000030000e-01  -2.000000030000e-01  0.0
 -6.428571790000e-02  -1.700000018000e-01  0.0
 -8.058035746000e-02  -1.850000024000e-01  0.0
 -9.687499702000e-02  -2.000000030000e-01  0.0
 -6.339285895000e-02  -1.850000024000e-01  0.0
 -7.968749851000e-02  -2.000000030000e-01  0.0
 -6.250000000000e-02  -2.000000030000e-01  0.0
 -2.000000030000e-01  -1.544443965000e-01  0.0
 -1.750000045000e-01  -1.379364989500e-01  0.0
 -1.500000060000e-01  -1.214286014000e-01  0.0
 -2.000000030000e-01  -1.316666491500e-01  0.0
 -1.750000045000e-01  -1.151587516000e-01  0.0
 -2.000000030000e-01  -1.088889018000e-01  0.0
 -1.500000060000e-01  -1.214286014000e-01  0.0
 -1.750000045000e-01  -1.379364989500e-01  0.0
 -2.000000030000e-01  -1.544443965000e-01  0.0
 -1.500000060000e-01  -1.457143016000e-01  0.0
 -1.750000045000e-01  -1.622221991500e-01  0.0
 -1.500000060000e-01  -1.700000018000e-01  0.0
 -1.500000060000e-01  -7.285714149000e-02  0.0
 -1.750000045000e-01  -9.087302164500e-02  0.0
 -2.000000030000e-01  -1.088889018000e-01  0.0
 -1.500000060000e-01  -9.714287144500e-02  0.0
 -1.750000045000e-01  -1.151587516000e-01  0.0
 -1.500000060000e-01  -1.214286014000e-01  0.0
  1.832975030000e+00  -4.625000060000e-02  0.0
  1.853987515000e+00  -1.231250018000e-01  0.0
  1.875000000000e+00  -2.000000030000e-01  0.0
  1.916487515000e+00  -7.187499851000e-02  0.0
  1.937500000000e+00  -1.487499997100e-01  0.0
  2.000000000000e+00  -9.749999642000e-02  0.0
 -1.500000060000e-01  -1.700000018000e-01  0.0
 -1.360000037000e-01  -1.525000036000e-01  0.0
 -1.220000014000e-01  -1.350000054000e-01  0.0
 -1.500000060000e-01  -1.457143016000e-01  0.0
 -1.360000037000e-01  -1.282143034000e-01  0.0
 -1.500000060000e-01  -1.214286014000e-01  0.0
  2.849999964000e-01  -2.333333530000e-02  0.0
  2.837499976000e-01  -8.166666795000e-02  0.0
  2.824999988000e-01  -1.400000006000e-01  0.0
  3.174999952000e-01  -4.666666780000e-02  0.0
  3.162499964000e-01  -1.050000004500e-01  0.0
  3.499999940000e-01  -7.000000030000e-02  0.0
 -1.071429029000e-01  -1.700000018000e-01  0.0
 -8.571431040000e-02  -1.700000018000e-01  0.0
 -6.428571790000e-02  -1.700000018000e-01  0.0
 -9.857145324000e-02  -1.525000036000e-01  0.0
 -7.714286074000e-02  -1.525000036000e-01  0.0
 -9.000000358000e-02  -1.350000054000e-01  0.0
 -1.312499940000e-01  -2.000000030000e-01  0.0
 -1.191964484500e-01  -1.850000024000e-01  0.0
 -1.071429029000e-01  -1.700000018000e-01  0.0
 -1.406250000000e-01  -1.850000024000e-01  0.0
 -1.285714544500e-01  -1.700000018000e-01  0.0
 -1.500000060000e-01  -1.700000018000e-01  0.0
 -1.220000014000e-01  -1.350000054000e-01  0.0
 -1.060000024900e-01  -1.350000054000e-01  0.0
 -9.000000358000e-02  -1.350000054000e-01  0.0
 -1.185000017500e-01  -1.175000034500e-01  0.0
 -1.025000028400e-01  -1.175000034500e-01  0.0
 -1.150000021000e-01  -1.000000015000e-01  0.0
 -9.000000358000e-02  -1.350000054000e-01  0.0
 -1.060000024900e-01  -1.350000054000e-01  0.0
 -1.220000014000e-01  -1.350000054000e-01  0.0
 -9.857145324000e-02  -1.525000036000e-01  0.0
 -1.145714521500e-01  -1.525000036000e-01  0.0
 -1.071429029000e-01  -1.700000018000e-01  0.0
 -7.778175920000e-02  -9.192386270000e-02  0.0
 -9.639088065000e-02  -9.596193210000e-02  0.0
 -1.150000021000e-01  -1.000000015000e-01  0.0
 -8.389088139000e-02  -1.134619340500e-01  0.0
 -1.025000028400e-01  -1.175000034500e-01  0.0
 -9.000000358000e-02  -1.350000054000e-01  0.0
 -1.220000014000e-01  -1.350000054000e-01  0.0
 -1.185000017500e-01  -1.175000034500e-01  0.0
 -1.150000021000e-01  -1.000000015000e-01  0.0
 -1.360000037000e-01  -1.282143034000e-01  0.0
 -1.325000040500e-01  -1.107143014500e-01  0.0
 -1.500000060000e-01  -1.214286014000e-01  0.0
 -7.778175920000e-02  -9.192386270000e-02  0.0
 -8.389088139000e-02  -1.134619340500e-01  0.0
 -9.000000358000e-02  -1.350000054000e-01  0.0
 -6.639088876500e-02  -1.022535823500e-01  0.0
 -7.250001095500e-02  -1.237916537000e-01  0.0
 -5.500001833000e-02  -1.125833020000e-01  0.0
 -1.071429029000e-01  -1.700000018000e-01  0.0
 -1.145714521500e-01  -1.525000036000e-01  0.0
 -1.220000014000e-01  -1.350000054000e-01  0.0
 -1.285714544500e-01  -1.700000018000e-01  0.0
 -1.360000037000e-01  -1.525000036000e-01  0.0
 -1.500000060000e-01  -1.700000018000e-01  0.0
  6.250000093000e-03  -2.000000030000e-01  0.0
  4.062500153650e-02  -2.000000030000e-01  0.0
  7.500000298000e-02  -2.000000030000e-01  0.0
  1.383928512150e-02  -1.850000024000e-01  0.0
  4.821428656500e-02  -1.850000024000e-01  0.0
  2.142857015000e-02  -1.700000018000e-01  0.0
 -1.500000060000e-01  -7.285714149000e-02  0.0
 -1.500000060000e-01  -9.714287144500e-02  0.0
 -1.500000060000e-01  -1.214286014000e-01  0.0
 -1.325000040500e-01  -8.642857149500e-02  0.0
 -1.325000040500e-01  -1.107143014500e-01  0.0
 -1.150000021000e-01  -1.000000015000e-01  0.0
 -2.000000030000e-01  -6.333333254000e-02  0.0
 -1.750000045000e-01  -6.809523701500e-02  0.0
 -1.500000060000e-01  -7.285714149000e-02  0.0
 -1.750000045000e-01  -4.380952660000e-02  0.0
 -1.500000060000e-01  -4.857143107500e-02  0.0
 -1.500000060000e-01  -2.428572066000e-02  0.0
 -2.000000030000e-01  -6.333333254000e-02  0.0
 -2.000000030000e-01  -8.611111717000e-02  0.0
 -2.000000030000e-01  -1.088889018000e-01  0.0
 -1.750000045000e-01  -6.809523701500e-02  0.0
 -1.750000045000e-01  -9.087302164500e-02  0.0
 -1.500000060000e-01  -7.285714149000e-02  0.0
 -2.000000030000e-01  -6.333333254000e-02  0.0
 -1.750000045000e-01  -4.380952660000e-02  0.0
 -1.500000060000e-01  -2.428572066000e-02  0.0
 -2.000000030000e-01  -4.055555630500e-02  0.0
 -1.750000045000e-01  -2.103175036500e-02  0.0
 -2.000000030000e-01  -1.777778007000e-02  0.0
 -1.500000060000e-01  -2.428572066000e-02  0.0
 -1.500000060000e-01  -4.857143107500e-02  0.0
 -1.500000060000e-01  -7.285714149000e-02  0.0
 -1.281259023000e-01  -2.896608505500e-02  0.0
 -1.281259023000e-01  -5.325179547000e-02  0.0
 -1.062517986000e-01  -3.364644945000e-02  0.0
 -1.099999994000e-01   1.996667010000e-08  0.0
 -1.300000027000e-01  -1.214285034666e-02  0.0
 -1.500000060000e-01  -2.428572066000e-02  0.0
 -1.081258990000e-01  -1.682321474166e-02  0.0
 -1.281259023000e-01  -2.896608505500e-02  0.0
 -1.062517986000e-01  -3.364644945000e-02  0.0
 -1.500000060000e-01  -2.428572066000e-02  0.0
 -1.500000060000e-01   0.000000000000e+00  0.0
 -1.500000060000e-01   2.428572066000e-02  0.0
 -1.750000045000e-01  -2.103175036500e-02  0.0
 -1.750000045000e-01   3.253970295000e-03  0.0
 -2.000000030000e-01  -1.777778007000e-02  0.0
 -1.500000060000e-01  -7.285714149000e-02  0.0
 -1.226314045700e-01  -6.892856210000e-02  0.0
 -9.526280314000e-02  -6.499998271000e-02  0.0
 -1.281259023000e-01  -5.325179547000e-02  0.0
 -1.007573008700e-01  -4.932321608000e-02  0.0
 -1.062517986000e-01  -3.364644945000e-02  0.0
  3.499999940000e-01   1.400000006000e-01  0.0
  4.021931737500e-01   1.224999986500e-01  0.0
  4.543863535000e-01   1.049999967000e-01  0.0
  4.187500029500e-01   1.749999970000e-01  0.0
  4.709431827000e-01   1.574999950500e-01  0.0
  4.875000119000e-01   2.099999934000e-01  0.0
 -7.101409137000e-02  -4.349999130000e-02  0.0
 -8.313844725500e-02  -5.424998700500e-02  0.0
 -9.526280314000e-02  -6.499998271000e-02  0.0
 -6.449843011500e-02  -5.250913650000e-02  0.0
 -7.662278600000e-02  -6.325913220500e-02  0.0
 -5.798276886000e-02  -6.151828170000e-02  0.0
 -9.526280314000e-02  -6.499998271000e-02  0.0
 -1.226314045700e-01  -6.892856210000e-02  0.0
 -1.500000060000e-01  -7.285714149000e-02  0.0
 -1.051314026200e-01  -8.249999210500e-02  0.0
 -1.325000040500e-01  -8.642857149500e-02  0.0
 -1.150000021000e-01  -1.000000015000e-01  0.0
 -6.181925908000e-02  -1.656441018000e-02  0.0
 -7.051259093000e-02  -1.954082492500e-02  0.0
 -7.920592278000e-02  -2.251723967000e-02  0.0
 -5.862244405000e-02  -2.428220026000e-02  0.0
 -6.731577590000e-02  -2.725861500500e-02  0.0
 -5.542562902000e-02  -3.199999034000e-02  0.0
 -7.920592278000e-02  -2.251723967000e-02  0.0
 -9.272886069000e-02  -2.808184456000e-02  0.0
 -1.062517986000e-01  -3.364644945000e-02  0.0
 -7.511000707500e-02  -3.300861548500e-02  0.0
 -8.863294498500e-02  -3.857322037500e-02  0.0
 -7.101409137000e-02  -4.349999130000e-02  0.0
 -7.101409137000e-02  -4.349999130000e-02  0.0
 -6.321986019500e-02  -3.774999082000e-02  0.0
 -5.542562902000e-02  -3.199999034000e-02  0.0
 -7.511000707500e-02  -3.300861548500e-02  0.0
 -6.731577590000e-02  -2.725861500500e-02  0.0
 -7.920592278000e-02  -2.251723967000e-02  0.0
 -7.920592278000e-02  -2.251723967000e-02  0.0
 -9.460296109000e-02  -1.125860985166e-02  0.0
 -1.099999994000e-01   1.996667010000e-08  0.0
 -9.272886069000e-02  -2.808184456000e-02  0.0
 -1.081258990000e-01  -1.682321474166e-02  0.0
 -1.062517986000e-01  -3.364644945000e-02  0.0
 -7.778175920000e-02  -9.192386270000e-02  0.0
 -6.788226403000e-02  -7.672107220000e-02  0.0
 -5.798276886000e-02  -6.151828170000e-02  0.0
 -8.652228117000e-02  -7.846192270500e-02  0.0
 -7.662278600000e-02  -6.325913220500e-02  0.0
 -9.526280314000e-02  -6.499998271000e-02  0.0
 -7.101409137000e-02  -4.349999130000e-02  0.0
 -8.863294498500e-02  -3.857322037500e-02  0.0
 -1.062517986000e-01  -3.364644945000e-02  0.0
 -8.313844725500e-02  -5.424998700500e-02  0.0
 -1.007573008700e-01  -4.932321608000e-02  0.0
 -9.526280314000e-02  -6.499998271000e-02  0.0
 -7.778175920000e-02  -9.192386270000e-02  0.0
 -8.652228117000e-02  -7.846192270500e-02  0.0
 -9.526280314000e-02  -6.499998271000e-02  0.0
 -9.639088065000e-02  -9.596193210000e-02  0.0
 -1.051314026200e-01  -8.249999210500e-02  0.0
 -1.150000021000e-01  -1.000000015000e-01  0.0
[...]
POINT_DATA 2244
SCALARS field1 double 1
LOOKUP_TABLE default
  2.522870075385e-03 
  7.640031009499e-02 
  1.502777501146e-01 
  1.318105889710e-03 
  7.519554590932e-02 
  1.133417040355e-04 
  2.642484526872e-01 
  1.318910830861e-01 
 -4.662865150041e-04 
  1.330653683537e-01 
  7.079987525618e-04 
  1.882284020128e-03 
  1.482892410578e-01 
  1.919188328507e-01 
  2.355484246436e-01 
  2.043693991008e-01 
  2.479989908937e-01 
  2.604495571438e-01 
  2.370886368025e-01 
  1.923988959407e-01 
  1.477091550790e-01 
  1.822717398681e-01 
  1.375819990064e-01 
  1.274548429337e-01 
  3.220270647080e-01 
  2.913563880420e-01 
  2.606857113761e-01 
  2.805421162327e-01 
  2.498714395668e-01 
  2.390571677574e-01 
  2.840505563053e-01 
  1.490142217752e-01 
  1.397788724504e-02 
  2.811000988081e-01 
  1.460637642780e-01 
  2.781496413109e-01 
  1.279517809705e-01 
  1.799148337989e-01 
  2.318778866273e-01 
  1.831785897862e-01 
  2.351416426146e-01 
  2.384053986020e-01 
  2.911822422124e-01 
  3.006971194827e-01 
  3.102119967530e-01 
  2.982354064567e-01 
  3.077502837270e-01 
  3.052885707010e-01 
  1.922161600820e-01 
  2.271846102943e-01 
  2.621530605066e-01 
  2.275662500757e-01 
  2.625347002880e-01 
  2.629163400694e-01 
  6.971050055352e-04 
  9.633175726114e-02 
  1.919664095167e-01 
  6.228316173885e-02 
  1.579178139945e-01 
  1.238692184722e-01 
  2.285898345858e-01 
  2.437265707047e-01 
  2.588633068235e-01 
  2.614816534823e-01 
  2.766183896011e-01 
  2.943734723787e-01 
  2.603477971608e-01 
  2.445246129303e-01 
  2.287014286998e-01 
  2.263816379065e-01 
  2.105584536760e-01 
  1.924154786522e-01 
  3.265767633758e-01 
  3.101019591738e-01 
  2.936271549719e-01 
  2.939814400579e-01 
  2.775066358559e-01 
  2.613861167400e-01 
  2.296875178724e-01 
  2.628835898081e-01 
  2.960796617439e-01 
  2.350246262339e-01 
  2.682206981696e-01 
  2.403617345953e-01 
  3.267234410683e-01 
  2.944109034654e-01 
  2.620983658625e-01 
  3.372130556960e-01 
  3.049005180931e-01 
  3.477026703237e-01 
  1.905736531242e-01 
  2.110437785294e-01 
  2.315139039345e-01 
  1.585311755602e-01 
  1.790013009654e-01 
  1.264886979962e-01 
  1.634438681200e-03 
  2.625815829799e-03 
  3.617192978397e-03 
  1.713438157659e-01 
  1.723351929145e-01 
  3.410531928507e-01 
  3.216672883320e-01 
  2.809702634647e-01 
  2.402732385975e-01 
  3.092119286185e-01 
  2.685149037513e-01 
  2.967565689051e-01 
  3.369090436958e-01 
  3.280712846219e-01 
  3.192335255480e-01 
  3.450384442972e-01 
  3.362006852233e-01 
  3.531678448987e-01 
  3.361391471578e-01 
  2.989531710280e-01 
  2.617671948983e-01 
  3.281682689832e-01 
  2.909822928534e-01 
  3.201973908086e-01 
  3.380150670940e-01 
  3.457190326734e-01 
  3.534229982528e-01 
  3.565013629110e-01 
  3.642053284904e-01 
  3.749876587280e-01 
  3.534276145675e-01 
  3.376703372531e-01 
  3.219130599388e-01 
  3.254495209085e-01 
  3.096922435942e-01 
  2.974714272496e-01 
  2.758021915613e-01 
  3.147872495972e-01 
  3.537723076330e-01 
  2.851403995344e-01 
  3.241254575702e-01 
  2.944786075074e-01 
  3.496233417707e-01 
  3.525397195427e-01 
  3.554560973146e-01 
  3.626133047690e-01 
  3.655296825409e-01 
  3.756032677672e-01 
  3.211248287104e-01 
  3.099882791211e-01 
  2.988517295318e-01 
  3.087031884999e-01 
  2.975666389107e-01 
  2.962815482895e-01 
  3.052534250648e-01 
  3.319408066432e-01 
  3.586281882216e-01 
  1.775553045061e-01 
  2.042426860846e-01 
  4.985718394752e-02 
  2.607737391038e-01 
  2.825865018128e-01 
  3.043992645217e-01 
  2.951598514325e-01 
  3.169726141414e-01 
  3.295459637612e-01 
  3.000475319991e-01 
  3.106675347778e-01 
  3.212875375566e-01 
  2.987231787271e-01 
  3.093431815059e-01 
  2.973988254552e-01 
  9.661558635601e-02 
  1.509735007068e-01 
  2.053314150577e-01 
  1.255476759039e-01 
  1.799055902547e-01 
  1.544797654517e-01 
  1.995819624449e-01 
  2.464858484434e-01 
  2.933897344420e-01 
  2.301380088557e-01 
  2.770418948542e-01 
  2.606940552665e-01 
  2.604272766297e-01 
  2.089626076058e-01 
  1.574979385819e-01 
  2.316204946704e-01 
  1.801558256464e-01 
  2.028137127110e-01 
  1.984578133882e-01 
  2.355397081725e-01 
  2.726216029568e-01 
  2.462843133060e-01 
  2.833662080903e-01 
  2.941108132238e-01 
  3.275432650855e-01 
  3.297960949692e-01 
  3.320489248529e-01 
  3.152829244472e-01 
  3.175357543309e-01 
  3.030225838089e-01 
  2.624764566188e-01 
  2.783331340380e-01 
  2.941898114572e-01 
  2.836054743540e-01 
  2.994621517732e-01 
  3.047344920891e-01 
  3.243153931930e-01 
  3.126132416503e-01 
  3.009110901076e-01 
  3.095515580231e-01 
  2.978494064804e-01 
  2.947877228532e-01 
  2.032441543507e-01 
  1.507124687948e-01 
  9.818078323878e-02 
  1.910244324909e-01 
  1.384927469349e-01 
  1.788047106310e-01 
  3.462339306571e-01 
  3.046830758773e-01 
  2.631322210975e-01 
  3.047510494007e-01 
  2.632001946209e-01 
  2.632681681443e-01 
  2.724240407472e-01 
  2.803430981429e-01 
  2.882621555386e-01 
  2.727073572432e-01 
  2.806264146389e-01 
  2.729906737391e-01 
  3.682624311099e-01 
  3.430164652234e-01 
  3.177704993370e-01 
  3.831700326827e-01 
  3.579240667963e-01 
  3.980776342556e-01 
  3.651172066696e-01 
  3.546518918976e-01 
  3.441865771255e-01 
  3.144786504513e-01 
  3.040133356793e-01 
  2.638400942330e-01 
  3.262865117954e-01 
  3.589833770163e-01 
  3.916802422371e-01 
  3.288925919648e-01 
  3.615894571857e-01 
  3.314986721343e-01 
  3.932591632398e-01 
  3.597683539007e-01 
  3.262775445615e-01 
  3.715057950448e-01 
  3.380149857056e-01 
  3.497524268497e-01 
  4.502490791163e-01 
  4.227762231755e-01 
  3.953033672348e-01 
  3.985557675108e-01 
  3.710829115700e-01 
  3.468624559053e-01 
  3.451554149257e-01 
  3.379519307443e-01 
  3.307484465628e-01 
  3.708868657691e-01 
  3.636833815876e-01 
  3.966183166124e-01 
  3.445586643435e-01 
  3.564045676763e-01 
  3.682504710091e-01 
  3.980832127255e-01 
  4.099291160583e-01 
  4.516077611076e-01 
  3.674713558126e-01 
  3.161435064429e-01 
  2.648156570732e-01 
  3.421908725841e-01 
  2.908630232144e-01 
  3.169103893556e-01 
  4.812886637263e-01 
  4.673473158072e-01 
  4.534059678881e-01 
  4.258961174346e-01 
  4.119547695155e-01 
  3.705035711429e-01 
  1.404766316092e-03 
  1.771359186890e-01 
  3.528670710618e-01 
 -6.596410402457e-04 
  1.750715113326e-01 
 -2.724048396583e-03 
  4.600232860459e-01 
  4.108834787572e-01 
  3.617436714686e-01 
  4.177332753846e-01 
  3.685934680959e-01 
  3.754432647233e-01 
  3.608353212013e-01 
  4.102806319070e-01 
  4.597259426126e-01 
  4.182033259840e-01 
  4.676486366897e-01 
  4.755713307667e-01 
  3.742057495554e-01 
  3.672861997664e-01 
  3.603666499774e-01 
  1.907027630526e-01 
  1.837832132636e-01 
  7.199776549865e-03 
  4.534352043191e-01 
  4.160168663161e-01 
  3.785985283132e-01 
  4.257556784829e-01 
  3.883373404800e-01 
  3.980761526468e-01 
  4.482038170366e-01 
  4.006204970850e-01 
  3.530371771333e-01 
  4.626780727724e-01 
  4.150947528207e-01 
  4.771523285082e-01 
  4.801520581612e-01 
  4.257826296627e-01 
  3.714132011642e-01 
  4.374338839382e-01 
  3.830644554397e-01 
  3.947157097151e-01 
  3.180272131488e-01 
  3.260005518683e-01 
  3.339738905878e-01 
  3.583097780985e-01 
  3.662831168180e-01 
  3.985923430481e-01 
  3.433146353880e-01 
  3.720144819184e-01 
  4.007143284488e-01 
  3.600601643317e-01 
  3.887600108621e-01 
  3.768056932754e-01 
 -1.502367892654e-03 
  7.962753453662e-02 
  1.607574369659e-01 
  3.254216880774e-03 
  8.438411931005e-02 
  8.010801654203e-03 
  1.585141191877e-01 
  2.079719103884e-01 
  2.574297015890e-01 
  2.097816379827e-01 
  2.592394291834e-01 
  2.610491567777e-01 
  2.759624283558e-01 
  1.414018999438e-01 
  6.841371531877e-03 
  1.375456672450e-01 
  2.985138833066e-03 
 -8.710938657444e-04 
 -5.624028990001e-03 
  1.431366793345e-02 
  3.425136485690e-02 
  4.462633402829e-02 
  6.456403095175e-02 
  9.487669704659e-02 
  1.986933795867e-03 
 -2.302260233794e-03 
 -6.591454263455e-03 
  7.659189960953e-02 
  7.230270557986e-02 
  1.511968654232e-01 
  2.160224695503e-01 
  1.085024540112e-01 
  9.824384721679e-04 
  1.835542899725e-01 
  7.603427443344e-02 
  1.510861103947e-01 
  1.596075910793e-01 
  2.133065240382e-01 
  2.670054569972e-01 
  8.524177418265e-02 
  1.389407071416e-01 
  1.087595728603e-02 
 -8.640756455836e-03 
  4.270126849106e-02 
  9.404329343795e-02 
  7.106965772771e-02 
  1.224116826746e-01 
  1.507800719113e-01 
  2.846515983336e-03 
  3.327600960982e-03 
  3.808685938628e-03 
  1.900304138706e-01 
  1.905114988483e-01 
  3.772143117579e-01 
  5.872333969126e-03 
  1.841446209840e-01 
  3.624169079989e-01 
  3.907808666892e-03 
  1.821800956818e-01 
  1.943283364659e-03 
  3.354367701591e-01 
  1.707548340836e-01 
  6.072898008022e-03 
  3.091753667406e-01 
  1.444934306650e-01 
  2.829139633220e-01 
  2.484776430920e-03 
  1.401502854466e-01 
  2.778157944623e-01 
  6.087559366533e-03 
  1.437530683822e-01 
  9.690342302147e-03 
  8.863236431024e-03 
  1.761883852664e-01 
  3.435135341018e-01 
  1.912986476238e-01 
  3.586237964592e-01 
  3.737340588165e-01 
  3.193215530638e-01 
  1.640037446165e-01 
  8.685936169198e-03 
  3.266494911466e-01 
  1.713316826993e-01 
  3.339774292294e-01 
  1.961406522884e-01 
  9.840595268460e-02 
  6.712530807935e-04 
  9.989120269962e-02 
  2.156503095820e-03 
  3.641753110847e-03 
  1.516753724888e-02 
  1.445107409929e-01 
  2.738539447368e-01 
  1.788252097212e-01 
  3.081684134652e-01 
  3.424828821935e-01 
  2.661069442797e-01 
  2.988314683848e-01 
  3.315559924899e-01 
  3.050054579908e-01 
  3.377299820959e-01 
  3.439039717020e-01 
  2.693130686165e-01 
  1.388125883761e-01 
  8.312108135794e-03 
  2.911447950752e-01 
  1.606443148349e-01 
  3.129765215339e-01 
  4.779714035012e-01 
  4.358813916570e-01 
  3.937913798127e-01 
  4.417718860705e-01 
  3.996818742263e-01 
  4.055723686398e-01 
  2.621996734828e-01 
  2.595061894085e-01 
  2.568127053341e-01 
  2.970647076918e-01 
  2.943712236175e-01 
  3.319297419008e-01 
  1.362938294271e-03 
  3.902071004919e-03 
  6.441203715566e-03 
  1.371450510910e-01 
  1.396841838016e-01 
  2.729271638877e-01 
  3.030852814872e-02 
  1.387946191749e-02 
 -2.549604313734e-03 
  1.368697977871e-02 
 -2.742086452521e-03 
 -2.934568591308e-03 
  3.412346592833e-01 
  3.480970517732e-01 
  3.549594442630e-01 
  3.219382398901e-01 
  3.288006323800e-01 
  3.026418204969e-01 
  3.566623860395e-01 
  3.654225117936e-01 
  3.741826375477e-01 
  3.664501545892e-01 
  3.752102803433e-01 
  3.762379231389e-01 
  3.727143589802e-01 
  3.552715320412e-01 
  3.378287051022e-01 
  3.546618577396e-01 
  3.372190308006e-01 
  3.366093564989e-01 
  3.378020691731e-01 
  3.549578163015e-01 
  3.721135634299e-01 
  3.459646284346e-01 
  3.631203755630e-01 
  3.541271876961e-01 
  3.358861512932e-01 
  3.377608197125e-01 
  3.396354881317e-01 
  2.990912579228e-01 
  3.009659263420e-01 
  2.622963645523e-01 
  7.342059465339e-03 
 -8.509935799145e-03 
 -2.436193106363e-02 
  1.356898098749e-01 
  1.198378146104e-01 
  2.640375602845e-01 
  3.566243256975e-01 
  3.166156271390e-01 
  2.766069285805e-01 
  3.278199040227e-01 
  2.878112054642e-01 
  2.990154823480e-01 
  3.558892784332e-01 
  3.538034266071e-01 
  3.517175747810e-01 
  3.173387279640e-01 
  3.152528761378e-01 
  2.787881774947e-01 
  1.978116559775e-01 
  2.481147770221e-01 
  2.984178980667e-01 
  2.359924373862e-01 
  2.862955584308e-01 
  2.741732187948e-01 
  2.736946942645e-01 
  2.366995908570e-01 
  1.997044874495e-01 
  2.211311111345e-01 
  1.841360077270e-01 
  1.685675280046e-01 
  2.973017022112e-01 
  2.832645986303e-01 
  2.692274950494e-01 
  3.012425541262e-01 
  2.872054505453e-01 
  3.051834060413e-01 
  2.688368562518e-01 
  2.824749126212e-01 
  2.961129689906e-01 
  2.338419222552e-01 
  2.474799786246e-01 
  1.988469882587e-01 
  3.271922314123e-01 
  3.152115467044e-01 
  3.032308619965e-01 
  3.353648817230e-01 
  3.233841970151e-01 
  3.435375320337e-01 
  3.008705314608e-01 
  3.017853737056e-01 
  3.027002159503e-01 
  3.213275519557e-01 
  3.222423942004e-01 
  3.417845724506e-01 
  2.005303036764e-01 
  1.891311112618e-01 
  1.777319188472e-01 
  1.491060585096e-01 
  1.377068660950e-01 
  9.768181334274e-02 
  1.980410602700e-01 
  2.356684151547e-01 
  2.732957700393e-01 
  1.879682091580e-01 
  2.255955640426e-01 
  1.778953580459e-01 
  2.720939725084e-01 
  2.356096546878e-01 
  1.991253368671e-01 
  2.254273748199e-01 
  1.889430569993e-01 
  1.787607771315e-01 
  3.411262529617e-01 
  3.228294017087e-01 
  3.045325504556e-01 
  3.264477953645e-01 
  3.081509441114e-01 
  3.117693377673e-01 
  2.609772212944e-01 
  2.558443992513e-01 
  2.507115772082e-01 
  2.048366974391e-01 
  1.997038753960e-01 
  1.486961735839e-01 
  2.616610934073e-01 
  3.013760005111e-01 
  3.410909076149e-01 
  2.576444736162e-01 
  2.973593807200e-01 
  2.536278538250e-01 
  1.478579667027e-01 
  1.514972917733e-01 
  1.551366168440e-01 
  7.420589971753e-02 
  7.784522478821e-02 
  5.538327324002e-04 
  1.563609914442e-01 
  1.521234105943e-01 
  1.478858297444e-01 
  2.041155010961e-01 
  1.998779202462e-01 
  2.518700107481e-01 
  2.281176351013e-01 
  1.176903048512e-01 
  7.262974601053e-03 
  1.135016410675e-01 
  3.074310817412e-03 
 -1.114352966229e-03 
  2.355958714490e-02 
  1.336326047484e-02 
  3.166933804771e-03 
  1.738566324278e-01 
  1.636603057577e-01 
  3.241536777106e-01 
  2.536951022227e-01 
  2.472409313126e-01 
  2.407867604024e-01 
  2.048011679346e-01 
  1.983469970244e-01 
  1.559072336465e-01 
  2.902254304732e-01 
  1.439339479141e-01 
 -2.357534645021e-03 
  1.564707465835e-01 
  1.017926402437e-02 
  2.271606269376e-02 
  3.085535636176e-01 
  3.164582025507e-01 
  3.243628414838e-01 
  2.930796462921e-01 
  3.009842852253e-01 
  2.776057289667e-01 
  3.234253936073e-01 
  3.167943974942e-01 
  3.101634013811e-01 
  3.142085885938e-01 
  3.075775924808e-01 
  3.049917835804e-01 
  2.358374143140e-01 
  2.581115492188e-01 
  2.803856841236e-01 
  2.274155104748e-01 
  2.496896453796e-01 
  2.189936066356e-01 
  2.762372657225e-01 
  2.573163559687e-01 
  2.383954462149e-01 
  2.925291314413e-01 
  2.736082216875e-01 
  3.088209971602e-01 
  2.230389111870e-01 
  2.526286465504e-01 
  2.822183819139e-01 
  2.578649554572e-01 
  2.874546908206e-01 
  2.926909997273e-01 
  2.393753809338e-01 
  2.267196546871e-01 
  2.140639284404e-01 
  1.964553174355e-01 
  1.837995911888e-01 
  1.535352539371e-01 
  3.237332630352e-01 
  3.327599220994e-01 
  3.417865811635e-01 
  3.012629488455e-01 
  3.102896079097e-01 
  2.787926346559e-01 
  3.105192758219e-01 
  2.752892392363e-01 
  2.400592026508e-01 
  2.826707418225e-01 
  2.474407052370e-01 
  2.548222078232e-01 
  3.405381130151e-01 
  3.255998321692e-01 
  3.106615513234e-01 
  2.974178178782e-01 
  2.824795370324e-01 
  2.542975227414e-01 
  2.279830190462e-01 
  2.578299676182e-01 
  2.876769161902e-01 
  1.186313936708e-01 
  1.484783422428e-01 
  9.279768295505e-03 
  3.024134102530e-01 
  2.866372520533e-01 
  2.708610938537e-01 
  3.224145921461e-01 
  3.066384339464e-01 
  3.424157740392e-01 
  5.791771198241e-02 
  1.663292697885e-01 
  2.747408275946e-01 
  1.268886600253e-01 
  2.353002178314e-01 
  1.958596080682e-01 
  3.275246591568e-02 
  1.505433961435e-02 
 -2.643786686976e-03 
  6.486196699333e-02 
  4.716384069200e-02 
  9.697146807098e-02 
  2.983707440441e-02 
  1.323617997094e-02 
 -3.364714462523e-03 
  1.422844663233e-02 
 -2.372447801131e-03 
 -1.380181139740e-03 
  9.841632746309e-02 
  4.974250023784e-02 
  1.068673012590e-03 
  1.306214428692e-01 
  8.194761564400e-02 
  1.628265582754e-01 
  2.449874857582e-01 
  2.040685874336e-01 
  1.631496891090e-01 
  1.214207925816e-01 
  8.050189425694e-02 
 -2.145900595077e-03 
  2.516091662742e-01 
  2.990513366577e-01 
  3.464935070413e-01 
  2.631309865658e-01 
  3.105731569494e-01 
  2.746528068575e-01 
  2.483358967606e-01 
  2.626751576659e-01 
  2.770144185711e-01 
  2.071244536057e-01 
  2.214637145110e-01 
  1.659130104509e-01 
  1.665711333390e-03 
  4.990529303114e-02 
  9.814487472889e-02 
 -1.961895113710e-05 
  4.821996274661e-02 
 -1.704949235664e-03 
  2.015601427581e-01 
  1.497055968645e-01 
  9.785105097083e-02 
  1.837193868373e-01 
  1.318648409436e-01 
  1.658786309164e-01 
 -1.112860621422e-03 
  1.662424035504e-03 
  4.437708692430e-03 
  1.226472403620e-01 
  1.254225250189e-01 
  2.464073413454e-01 
  3.377016615826e-01 
  1.728089604815e-01 
  7.916259380444e-03 
  3.280425234025e-01 
  1.631498223014e-01 
  3.183833852224e-01 
  2.471634223604e-01 
  1.788691939919e-01 
  1.105749656235e-01 
  3.020119478252e-01 
  2.337177194567e-01 
  3.568604732900e-01 
  1.498014344515e-01 
  7.621383524175e-02 
  2.626236031997e-03 
  1.374638624484e-01 
  6.387626323868e-02 
  1.251262904454e-01 
  3.547316115488e-01 
  1.785031035793e-01 
  2.274595609740e-03 
  1.814502023130e-01 
  5.221694343419e-03 
  8.168793077098e-03 
  3.455590253699e-01 
  1.723115287516e-01 
 -9.359678667862e-04 
  1.762166930263e-01 
  2.969196407981e-03 
  6.874360682748e-03 
  2.748797993051e-01 
  1.399427573998e-01 
  5.005715494448e-03 
  2.557254357490e-01 
  1.207883938437e-01 
  2.365710721929e-01 
  2.441974992724e-01 
  1.229264917588e-01 
  1.655484245230e-03 
  2.910892905225e-01 
  1.698182830089e-01 
  3.379810817725e-01 
  3.032026266387e-01 
  2.946725117802e-01 
  2.861423969217e-01 
  3.029511689214e-01 
  2.944210540629e-01 
  3.026997112040e-01 
  3.833755406232e-01 
  1.935895276082e-01 
  3.803514593197e-03 
  1.929308832012e-01 
  3.144870186150e-03 
  2.486225779102e-03 
  3.448382878660e-01 
  3.425219659047e-01 
  3.402056439434e-01 
  3.750314889840e-01 
  3.727151670228e-01 
  4.052246901021e-01 
  3.364960106367e-01 
  3.421493889651e-01 
  3.478027672935e-01 
  2.922472842356e-01 
  2.979006625640e-01 
  2.479985578344e-01 
  3.621155076320e-01 
  3.252609128649e-01 
  2.884063180977e-01 
  3.515403611464e-01 
  3.146857663793e-01 
  3.409652146608e-01 
  2.914687106214e-01 
  2.866023378965e-01 
  2.817359651715e-01 
  3.159116773603e-01 
  3.110453046353e-01 
  3.403546440991e-01 
  3.456383794382e-01 
  3.351012280959e-01 
  3.245640767536e-01 
  3.751222567336e-01 
  3.645851053913e-01 
  4.046061340289e-01 
  4.049424502537e-01 
  4.304682320037e-01 
  4.559940137538e-01 
  3.749066626878e-01 
  4.004324444378e-01 
  3.448708751218e-01 
  4.051185858461e-01 
  3.745327627291e-01 
  3.439469396122e-01 
  3.924092191575e-01 
  3.618233960405e-01 
  3.796998524689e-01 
  3.438888505833e-01 
  3.733143581072e-01 
  4.027398656311e-01 
  3.346559909561e-01 
  3.640814984799e-01 
  3.254231313288e-01 
  3.781576463819e-01 
  3.711847401014e-01 
  3.642118338209e-01 
  4.195899812365e-01 
  4.126170749560e-01 
  4.610223160911e-01 
  3.799923918743e-01 
  3.655425274163e-01 
  3.510926629582e-01 
  1.964143369666e-01 
  1.819644725085e-01 
  1.283628205885e-02 
  3.714161709955e-01 
  4.148281471806e-01 
  4.582401233656e-01 
  4.242110885175e-01 
  4.676230647026e-01 
  4.770060060396e-01 
  4.579074524246e-01 
  4.131999033232e-01 
  3.684923542217e-01 
  4.002415264089e-01 
  3.555339773075e-01 
  3.425756003933e-01 
  3.346458866887e-01 
  3.500711804456e-01 
  3.654964742024e-01 
  3.682220892749e-01 
  3.836473830317e-01 
  4.017982918611e-01 
  3.642570930270e-01 
  3.489164769785e-01 
  3.335758609300e-01 
  3.249502061344e-01 
  3.096095900859e-01 
  2.856433192419e-01 
  4.707405880923e-01 
  4.659751549774e-01 
  4.612097218626e-01 
  4.168178227069e-01 
  4.120523895920e-01 
  3.628950573215e-01 
  3.793185738690e-01 
  4.176779261310e-01 
  4.560372783929e-01 
  3.917167352927e-01 
  4.300760875546e-01 
  4.041148967164e-01 
  7.915564197655e-03 
  1.855143370704e-01 
  3.631131099431e-01 
  1.941176548878e-01 
  3.717164277605e-01 
  3.803197455780e-01 