# vtk DataFile Version 2
NuDG++ 2D simulation
ASCII
DATASET UNSTRUCTURED_GRID

POINTS 2244 double
 -1.656250060000e-01  -2.000000030000e-01  0.0
 -1.828125045000e-01  -1.772221997500e-01  0.0
 -2.000000030000e-01  -1.544443965000e-01  0.0
 -1.828125045000e-01  -2.000000030000e-01  0.0
 -2.000000030000e-01  -1.772221997500e-01  0.0
 -2.000000030000e-01  -2.000000030000e-01  0.0
 -6.428571790000e-02  -1.700000018000e-01  0.0
 -8.058035746000e-02  -1.850000024000e-01  0.0
 -9.687499702000e-02  -2.000000030000e-01  0.0
 -6.339285895000e-02  -1.850000024000e-01  0.0
 -7.968749851000e-02  -2.000000030000e-01  0.0
 -6.250000000000e-02  -2.000000030000e-01  0.0
 -2.000000030000e-01  -1.544443965000e-01  0.0
 -1.750000045000e-01  -1.379364989500e-01  0.0
 -1.500000060000e-01  -1.214286014000e-01  0.0
 -2.000000030000e-01  -1.316666491500e-01  0.0
 -1.750000045000e-01  -1.151587516000e-01  0.0
 -2.000000030000e-01  -1.088889018000e-01  0.0
 -1.500000060000e-01  -1.214286014000e-01  0.0
 -1.750000045000e-01  -1.379364989500e-01  0.0
 -2.000000030000e-01  -1.544443965000e-01  0.0
 -1.500000060000e-01  -1.457143016000e-01  0.0
 -1.750000045000e-01  -1.622221991500e-01  0.0
 -1.500000060000e-01  -1.700000018000e-01  0.0
 -1.500000060000e-01  -7.285714149000e-02  0.0
 -1.750000045000e-01  -9.087302164500e-02  0.0
 -2.000000030000e-01  -1.088889018000e-01  0.0
 -1.500000060000e-01  -9.714287144500e-02  0.0
 -1.750000045000e-01  -1.151587516000e-01  0.0
 -1.500000060000e-01  -1.214286014000e-01  0.0
  1.832975030000e+00  -4.625000060000e-02  0.0
  1.853987515000e+00  -1.231250018000e-01  0.0
  1.875000000000e+00  -2.000000030000e-01  0.0
  1.916487515000e+00  -7.187499851000e-02  0.0
  1.937500000000e+00  -1.487499997100e-01  0.0
  2.000000000000e+00  -9.749999642000e-02  0.0
 -1.500000060000e-01  -1.700000018000e-01  0.0
 -1.360000037000e-01  -1.525000036000e-01  0.0
 -1.220000014000e-01  -1.350000054000e-01  0.0
 -1.500000060000e-01  -1.457143016000e-01  0.0
 -1.360000037000e-01  -1.282143034000e-01  0.0
 -1.500000060000e-01  -1.214286014000e-01  0.0
  2.849999964000e-01  -2.333333530000e-02  0.0
  2.837499976000e-01  -8.166666795000e-02  0.0
  2.824999988000e-01  -1.400000006000e-01  0.0
  3.174999952000e-01  -4.666666780000e-02  0.0
  3.162499964000e-01  -1.050000004500e-01  0.0
  3.499999940000e-01  -7.000000030000e-02  0.0
 -1.071429029000e-01  -1.700000018000e-01  0.0
 -8.571431040000e-02  -1.700000018000e-01  0.0
 -6.428571790000e-02  -1.700000018000e-01  0.0
 -9.857145324000e-02  -1.525000036000e-01  0.0
 -7.714286074000e-02  -1.525000036000e-01  0.0
 -9.000000358000e-02  -1.350000054000e-01  0.0
 -1.312499940000e-01  -2.000000030000e-01  0.0
 -1.191964484500e-01  -1.850000024000e-01  0.0
 -1.071429029000e-01  -1.700000018000e-01  0.0
 -1.406250000000e-01  -1.850000024000e-01  0.0
 -1.285714544500e-01  -1.700000018000e-01  0.0
 -1.500000060000e-01  -1.700000018000e-01  0.0
 -1.220000014000e-01  -1.350000054000e-01  0.0
 -1.060000024900e-01  -1.350000054000e-01  0.0
 -9.000000358000e-02  -1.350000054000e-01  0.0
 -1.185000017500e-01  -1.175000034500e-01  0.0
 -1.025000028400e-01  -1.175000034500e-01  0.0
 -1.150000021000e-01  -1.000000015000e-01  0.0
 -9.000000358000e-02  -1.350000054000e-01  0.0
 -1.060000024900e-01  -1.350000054000e-01  0.0
 -1.220000014000e-01  -1.350000054000e-01  0.0
 -9.857145324000e-02  -1.525000036000e-01  0.0
 -1.145714521500e-01  -1.525000036000e-01  0.0
 -1.071429029000e-01  -1.700000018000e-01  0.0
 -7.778175920000e-02  -9.192386270000e-02  0.0
 -9.639088065000e-02  -9.596193210000e-02  0.0
 -1.150000021000e-01  -1.000000015000e-01  0.0
 -8.389088139000e-02  -1.134619340500e-01  0.0
 -1.025000028400e-01  -1.175000034500e-01  0.0
 -9.000000358000e-02  -1.350000054000e-01  0.0
 -1.220000014000e-01  -1.350000054000e-01  0.0
 -1.185000017500e-01  -1.175000034500e-01  0.0
 -1.150000021000e-01  -1.000000015000e-01  0.0
 -1.360000037000e-01  -1.282143034000e-01  0.0
 -1.325000040500e-01  -1.107143014500e-01  0.0
 -1.500000060000e-01  -1.214286014000e-01  0.0
 -7.778175920000e-02  -9.192386270000e-02  0.0
 -8.389088139000e-02  -1.134619340500e-01  0.0
 -9.000000358000e-02  -1.350000054000e-01  0.0
 -6.639088876500e-02  -1.022535823500e-01  0.0
 -7.250001095500e-02  -1.237916537000e-01  0.0
 -5.500001833000e-02  -1.125833020000e-01  0.0
 -1.071429029000e-01  -1.700000018000e-01  0.0
 -1.145714521500e-01  -1.525000036000e-01  0.0
 -1.220000014000e-01  -1.350000054000e-01  0.0
 -1.285714544500e-01  -1.700000018000e-01  0.0
 -1.360000037000e-01  -1.525000036000e-01  0.0
 -1.500000060000e-01  -1.700000018000e-01  0.0
  6.250000093000e-03  -2.000000030000e-01  0.0
  4.062500153650e-02  -2.000000030000e-01  0.0
  7.500000298000e-02  -2.000000030000e-01  0.0
  1.383928512150e-02  -1.850000024000e-01  0.0
  4.821428656500e-02  -1.850000024000e-01  0.0
  2.142857015000e-02  -1.700000018000e-01  0.0
 -1.500000060000e-01  -7.285714149000e-02  0.0
 -1.500000060000e-01  -9.714287144500e-02  0.0
 -1.500000060000e-01  -1.214286014000e-01  0.0
 -1.325000040500e-01  -8.642857149500e-02  0.0
 -1.325000040500e-01  -1.107143014500e-01  0.0
 -1.150000021000e-01  -1.000000015000e-01  0.0
 -2.000000030000e-01  -6.333333254000e-02  0.0
 -1.750000045000e-01  -6.809523701500e-02  0.0
 -1.500000060000e-01  -7.285714149000e-02  0.0
 -1.750000045000e-01  -4.380952660000e-02  0.0
 -1.500000060000e-01  -4.857143107500e-02  0.0
 -1.500000060000e-01  -2.428572066000e-02  0.0
 -2.000000030000e-01  -6.333333254000e-02  0.0
 -2.000000030000e-01  -8.611111717000e-02  0.0
 -2.000000030000e-01  -1.088889018000e-01  0.0
 -1.750000045000e-01  -6.809523701500e-02  0.0
 -1.750000045000e-01  -9.087302164500e-02  0.0
 -1.500000060000e-01  -7.285714149000e-02  0.0
 -2.000000030000e-01  -6.333333254000e-02  0.0
 -1.750000045000e-01  -4.380952660000e-02  0.0
 -1.500000060000e-01  -2.428572066000e-02  0.0
 -2.000000030000e-01  -4.055555630500e-02  0.0
 -1.750000045000e-01  -2.103175036500e-02  0.0
 -2.000000030000e-01  -1.777778007000e-02  0.0
 -1.500000060000e-01  -2.428572066000e-02  0.0
 -1.500000060000e-01  -4.857143107500e-02  0.0
 -1.500000060000e-01  -7.285714149000e-02  0.0
 -1.281259023000e-01  -2.896608505500e-02  0.0
 -1.281259023000e-01  -5.325179547000e-02  0.0
 -1.062517986000e-01  -3.364644945000e-02  0.0
 -1.099999994000e-01   1.996667010000e-08  0.0
 -1.300000027000e-01  -1.214285034666e-02  0.0
 -1.500000060000e-01  -2.428572066000e-02  0.0
 -1.081258990000e-01  -1.682321474166e-02  0.0
 -1.281259023000e-01  -2.896608505500e-02  0.0
 -1.062517986000e-01  -3.364644945000e-02  0.0
 -1.500000060000e-01  -2.428572066000e-02  0.0
 -1.500000060000e-01   0.000000000000e+00  0.0
 -1.500000060000e-01   2.428572066000e-02  0.0
 -1.750000045000e-01  -2.103175036500e-02  0.0
 -1.750000045000e-01   3.253970295000e-03  0.0
 -2.000000030000e-01  -1.777778007000e-02  0.0
 -1.500000060000e-01  -7.285714149000e-02  0.0
 -1.226314045700e-01  -6.892856210000e-02  0.0
 -9.526280314000e-02  -6.499998271000e-02  0.0
 -1.281259023000e-01  -5.325179547000e-02  0.0
 -1.007573008700e-01  -4.932321608000e-02  0.0
 -1.062517986000e-01  -3.364644945000e-02  0.0
  3.499999940000e-01   1.400000006000e-01  0.0
  4.021931737500e-01   1.224999986500e-01  0.0
  4.543863535000e-01   1.049999967000e-01  0.0
  4.187500029500e-01   1.749999970000e-01  0.0
  4.709431827000e-01   1.574999950500e-01  0.0
  4.875000119000e-01   2.099999934000e-01  0.0
 -7.101409137000e-02  -4.349999130000e-02  0.0
 -8.313844725500e-02  -5.424998700500e-02  0.0
 -9.526280314000e-02  -6.499998271000e-02  0.0
 -6.449843011500e-02  -5.250913650000e-02  0.0
 -7.662278600000e-02  -6.325913220500e-02  0.0
 -5.798276886000e-02  -6.151828170000e-02  0.0
 -9.526280314000e-02  -6.499998271000e-02  0.0
 -1.226314045700e-01  -6.892856210000e-02  0.0
 -1.500000060000e-01  -7.285714149000e-02  0.0
 -1.051314026200e-01  -8.249999210500e-02  0.0
 -1.325000040500e-01  -8.642857149500e-02  0.0
 -1.150000021000e-01  -1.000000015000e-01  0.0
 -6.181925908000e-02  -1.656441018000e-02  0.0
 -7.051259093000e-02  -1.954082492500e-02  0.0
 -7.920592278000e-02  -2.251723967000e-02  0.0
 -5.862244405000e-02  -2.428220026000e-02  0.0
 -6.731577590000e-02  -2.725861500500e-02  0.0
 -5.542562902000e-02  -3.199999034000e-02  0.0
 -7.920592278000e-02  -2.251723967000e-02  0.0
 -9.272886069000e-02  -2.808184456000e-02  0.0
 -1.062517986000e-01  -3.364644945000e-02  0.0
 -7.511000707500e-02  -3.300861548500e-02  0.0
 -8.863294498500e-02  -3.857322037500e-02  0.0
 -7.101409137000e-02  -4.349999130000e-02  0.0
 -7.101409137000e-02  -4.349999130000e-02  0.0
 -6.321986019500e-02  -3.774999082000e-02  0.0
 -5.542562902000e-02  -3.199999034000e-02  0.0
 -7.511000707500e-02  -3.300861548500e-02  0.0
 -6.731577590000e-02  -2.725861500500e-02  0.0
 -7.920592278000e-02  -2.251723967000e-02  0.0
 -7.920592278000e-02  -2.251723967000e-02  0.0
 -9.460296109000e-02  -1.125860985166e-02  0.0
 -1.099999994000e-01   1.996667010000e-08  0.0
 -9.272886069000e-02  -2.808184456000e-02  0.0
 -1.081258990000e-01  -1.682321474166e-02  0.0
 -1.062517986000e-01  -3.364644945000e-02  0.0
 -7.778175920000e-02  -9.192386270000e-02  0.0
 -6.788226403000e-02  -7.672107220000e-02  0.0
 -5.798276886000e-02  -6.151828170000e-02  0.0
 -8.652228117000e-02  -7.846192270500e-02  0.0
 -7.662278600000e-02  -6.325913220500e-02  0.0
 -9.526280314000e-02  -6.499998271000e-02  0.0
 -7.101409137000e-02  -4.349999130000e-02  0.0
 -8.863294498500e-02  -3.857322037500e-02  0.0
 -1.062517986000e-01  -3.364644945000e-02  0.0
 -8.313844725500e-02  -5.424998700500e-02  0.0
 -1.007573008700e-01  -4.932321608000e-02  0.0
 -9.526280314000e-02  -6.499998271000e-02  0.0
 -7.778175920000e-02  -9.192386270000e-02  0.0
 -8.652228117000e-02  -7.846192270500e-02  0.0
 -9.526280314000e-02  -6.499998271000e-02  0.0
 -9.639088065000e-02  -9.596193210000e-02  0.0
 -1.051314026200e-01  -8.249999210500e-02  0.0
 -1.150000021000e-01  -1.000000015000e-01  0.0
[...]
POINT_DATA 2244
SCALARS field1 double 1
LOOKUP_TABLE default
  2.909733054910e-03 
  1.157245139301e-01 
  2.285392948053e-01 
  1.319719371569e-03 
  1.141345002468e-01 
 -2.702943117707e-04 
  3.327478566723e-01 
  1.653123275679e-01 
 -2.123201536434e-03 
  1.673550375331e-01 
 -8.049157126498e-05 
  1.962218393904e-03 
  2.260588940053e-01 
  2.922873088881e-01 
  3.585157237709e-01 
  3.116223120277e-01 
  3.778507269105e-01 
  3.971857300501e-01 
  3.595057748436e-01 
  2.926893846998e-01 
  2.258729945560e-01 
  2.702968428506e-01 
  2.034804527068e-01 
  1.810879108575e-01 
  4.941574876326e-01 
  4.459004926429e-01 
  3.976434976531e-01 
  4.286658294325e-01 
  3.804088344428e-01 
  3.631741712324e-01 
  2.452408021323e-01 
  8.887099149979e-02 
 -6.749881913271e-02 
  2.918134254048e-01 
  1.354436147723e-01 
  3.383860486774e-01 
  1.817598872042e-01 
  2.603947502997e-01 
  3.390296133953e-01 
  2.711228826417e-01 
  3.497577457372e-01 
  3.604858780792e-01 
  4.823890603205e-01 
  4.568432700960e-01 
  4.312974798714e-01 
  4.841280121234e-01 
  4.585822218988e-01 
  4.858669639263e-01 
  2.453999723491e-01 
  2.893603948208e-01 
  3.333208172925e-01 
  3.143226746781e-01 
  3.582830971498e-01 
  3.832453770071e-01 
  1.051134085153e-04 
  1.231349571034e-01 
  2.461648007983e-01 
  8.806172787002e-02 
  2.110915715649e-01 
  1.760183423315e-01 
  3.352005402696e-01 
  3.582941796860e-01 
  3.813878191023e-01 
  3.971151889086e-01 
  4.202088283249e-01 
  4.590298375475e-01 
  3.800868717517e-01 
  3.578605912191e-01 
  3.356343106866e-01 
  3.126573224056e-01 
  2.904310418731e-01 
  2.452277730596e-01 
  5.072321920730e-01 
  4.831013111217e-01 
  4.589704301704e-01 
  4.460612944421e-01 
  4.219304134908e-01 
  3.848903968112e-01 
  3.373365075683e-01 
  3.977593634814e-01 
  4.581822193944e-01 
  3.493272844852e-01 
  4.097501403983e-01 
  3.613180614021e-01 
  5.075852393633e-01 
  4.455995550674e-01 
  3.836138707714e-01 
  5.118468365847e-01 
  4.498611522887e-01 
  5.161084338061e-01 
  2.443028518258e-01 
  2.916084593997e-01 
  3.389140669736e-01 
  2.121647918034e-01 
  2.594703993773e-01 
  1.800267317811e-01 
  1.450653041487e-03 
  3.792178862602e-03 
  6.133704683717e-03 
  2.394867159744e-01 
  2.418282417955e-01 
  4.775227789072e-01 
  4.937700194674e-01 
  4.278263609051e-01 
  3.618827023429e-01 
  4.756164513444e-01 
  4.096727927821e-01 
  4.574628832213e-01 
  5.124011020243e-01 
  5.013483669876e-01 
  4.902956319509e-01 
  5.260877609758e-01 
  5.150350259391e-01 
  5.397744199273e-01 
  5.110138089739e-01 
  4.544697565027e-01 
  3.979257040315e-01 
  5.011692524637e-01 
  4.446251999924e-01 
  4.913246959534e-01 
  5.139949594797e-01 
  5.270813366025e-01 
  5.401677137252e-01 
  5.420872952593e-01 
  5.551736723821e-01 
  5.701796310389e-01 
  5.401337952284e-01 
  5.174056966049e-01 
  4.946775979813e-01 
  5.058298674098e-01 
  4.831017687862e-01 
  4.715259395911e-01 
  4.455026270443e-01 
  4.930840298862e-01 
  5.406654327281e-01 
  4.553992848850e-01 
  5.029806877269e-01 
  4.652959427256e-01 
  5.349516501499e-01 
  5.420621473402e-01 
  5.491726445305e-01 
  5.529144043043e-01 
  5.600249014946e-01 
  5.708771584588e-01 
  4.936778018646e-01 
  4.813311320653e-01 
  4.689844622659e-01 
  4.817315514863e-01 
  4.693848816870e-01 
  4.697853011081e-01 
  4.228405197775e-01 
  4.734493578017e-01 
  5.240581958259e-01 
  2.444228504463e-01 
  2.950316884705e-01 
  6.600518111512e-02 
  4.368523672792e-01 
  4.564106733134e-01 
  4.759689793476e-01 
  4.874891811946e-01 
  5.070474872288e-01 
  5.381259951100e-01 
  4.711655317867e-01 
  4.825427049372e-01 
  4.939198780876e-01 
  4.660985048583e-01 
  4.774756780087e-01 
  4.610314779298e-01 
  1.708912364385e-01 
  2.565934079146e-01 
  3.422955793908e-01 
  2.258114812610e-01 
  3.115136527372e-01 
  2.807317260836e-01 
  3.284989496617e-01 
  3.956651507477e-01 
  4.628313518337e-01 
  3.827498725912e-01 
  4.499160736772e-01 
  4.370007955208e-01 
  4.389770418799e-01 
  3.635212209063e-01 
  2.880653999326e-01 
  3.880196878273e-01 
  3.125638668536e-01 
  3.370623337746e-01 
  3.275386790338e-01 
  3.839157911785e-01 
  4.402929033233e-01 
  3.962421593133e-01 
  4.526192714581e-01 
  4.649456395928e-01 
  5.076483606886e-01 
  5.251773047794e-01 
  5.427062488701e-01 
  4.908695472167e-01 
  5.083984913075e-01 
  4.740907337449e-01 
  4.398496471611e-01 
  4.530208556664e-01 
  4.661920641716e-01 
  4.590928740034e-01 
  4.722640825086e-01 
  4.783361008456e-01 
  5.025687127748e-01 
  4.865352987903e-01 
  4.705018848057e-01 
  4.807356070330e-01 
  4.647021930484e-01 
  4.589025012911e-01 
  3.376769944487e-01 
  2.575092392882e-01 
  1.773414841276e-01 
  3.231802422442e-01 
  2.430124870837e-01 
  3.086834900398e-01 
  5.153485662037e-01 
  4.494796906551e-01 
  3.836108151065e-01 
  4.248781182891e-01 
  3.590092427405e-01 
  3.344076703745e-01 
  2.847658964728e-01 
  3.074043536874e-01 
  3.300428109019e-01 
  3.960101749954e-01 
  4.186486322099e-01 
  5.072544535180e-01 
  5.333970405074e-01 
  4.772551994597e-01 
  4.211133584120e-01 
  5.573297916459e-01 
  5.011879505982e-01 
  5.812625427843e-01 
  5.297892308118e-01 
  5.215340684499e-01 
  5.132789060881e-01 
  4.323614620852e-01 
  4.241062997233e-01 
  3.349336933585e-01 
  5.050733354016e-01 
  5.711376367695e-01 
  6.372019381375e-01 
  5.231041221747e-01 
  5.891684235426e-01 
  5.411349089478e-01 
  6.405698360908e-01 
  5.733439362446e-01 
  5.061180363984e-01 
  5.820863300992e-01 
  5.148604302530e-01 
  5.236028241075e-01 
  7.285389789633e-01 
  6.855803927094e-01 
  6.426218064554e-01 
  6.236300193727e-01 
  5.806714331187e-01 
  5.187210597821e-01 
  6.243313963785e-01 
  5.824023762373e-01 
  5.404733560961e-01 
  6.357475489197e-01 
  5.938185287786e-01 
  6.471637014610e-01 
  5.151274985659e-01 
  5.263890817072e-01 
  5.376506648486e-01 
  6.237416117637e-01 
  6.350031949050e-01 
  7.323557249615e-01 
  5.324662749727e-01 
  4.345813176408e-01 
  3.366963603089e-01 
  4.767941694353e-01 
  3.789092121034e-01 
  4.211220638979e-01 
  7.832067601052e-01 
  7.591529777008e-01 
  7.350991952963e-01 
  6.619930192452e-01 
  6.379392368408e-01 
  5.407792783852e-01 
 -1.924220642222e-04 
  3.039838999554e-01 
  6.081602219751e-01 
 -5.240672616211e-03 
  2.989356494034e-01 
 -1.028892316820e-02 
  7.493309796617e-01 
  6.947436275005e-01 
  6.401562753394e-01 
  7.145632918472e-01 
  6.599759396860e-01 
  6.797956040327e-01 
  6.350563553138e-01 
  6.921910155205e-01 
  7.493256757273e-01 
  7.007691642146e-01 
  7.579038244214e-01 
  7.664819731155e-01 
  6.773175102542e-01 
  6.550557747045e-01 
  6.327940391549e-01 
  3.452063265305e-01 
  3.229445909808e-01 
  1.309514280681e-02 
  7.340577676117e-01 
  7.083614037158e-01 
  6.826650398200e-01 
  6.910629609691e-01 
  6.653665970733e-01 
  6.480681543266e-01 
  7.269816123326e-01 
  6.703526347941e-01 
  6.137236572557e-01 
  7.503610761831e-01 
  6.937320986446e-01 
  7.737405400336e-01 
  7.847146505690e-01 
  6.628788116895e-01 
  5.410429728101e-01 
  6.832581472520e-01 
  5.614223083725e-01 
  5.818016439349e-01 
  4.220600713625e-01 
  4.435919378939e-01 
  4.651238044254e-01 
  5.021465277616e-01 
  5.236783942930e-01 
  5.822329841607e-01 
  6.215081156736e-01 
  6.379782546050e-01 
  6.544483935365e-01 
  6.501660242227e-01 
  6.666361631541e-01 
  6.788239327718e-01 
 -1.504814026695e-03 
  1.457872452919e-01 
  2.930793046105e-01 
  6.919957190765e-03 
  1.542120165094e-01 
  1.534472840823e-02 
  2.881121492879e-01 
  3.605951930989e-01 
  4.330782369098e-01 
  3.764952113959e-01 
  4.489782552068e-01 
  4.648782735038e-01 
  4.197137980590e-01 
  2.123031313482e-01 
  4.892464637414e-03 
  2.107194416622e-01 
  3.308774951415e-03 
  1.725085265417e-03 
 -1.259803715573e-02 
  2.547708632790e-02 
  6.355220981153e-02 
  7.776432070171e-02 
  1.158394441853e-01 
  1.681266785591e-01 
  6.026160074432e-03 
 -3.336803829440e-03 
 -1.269976773331e-02 
  1.408338400454e-01 
  1.314708761415e-01 
  2.756415200163e-01 
  2.845450040503e-01 
  1.431235032596e-01 
  1.702002468848e-03 
  2.543555264087e-01 
  1.129340256180e-01 
  2.241660487671e-01 
  2.900608219431e-01 
  3.837270787680e-01 
  4.773933355929e-01 
  1.555477471996e-01 
  2.492140040245e-01 
  2.103467245610e-02 
 -1.777123207393e-02 
  7.315064747612e-02 
  1.640725270262e-01 
  1.280488124023e-01 
  2.189706919523e-01 
  2.738688568784e-01 
  5.920340397796e-03 
  6.777962201053e-03 
  7.635584004309e-03 
  3.429060354154e-01 
  3.437636572187e-01 
  6.798917304330e-01 
  1.221029316047e-02 
  3.225681967622e-01 
  6.329261003639e-01 
  6.455265609728e-03 
  3.168131692114e-01 
  7.002380589877e-04 
  4.512990460284e-01 
  2.265259938312e-01 
  1.752941633916e-03 
  4.107315153699e-01 
  1.859584631727e-01 
  3.701639847114e-01 
  5.180386505098e-03 
  2.535420898033e-01 
  5.019037931016e-01 
  1.394387880477e-02 
  2.623055821030e-01 
  2.270737110444e-02 
  1.800310217329e-02 
  3.195232846064e-01 
  6.210434670395e-01 
  3.449296890879e-01 
  6.464498715210e-01 
  6.718562760026e-01 
  4.230474647911e-01 
  2.159473397949e-01 
  8.847214798809e-03 
  4.434796898437e-01 
  2.363795648476e-01 
  4.639119148964e-01 
  2.509250307062e-01 
  1.260752473325e-01 
  1.225463958855e-03 
  1.274559121436e-01 
  2.606128769911e-03 
  3.986793580967e-03 
  3.347262394204e-02 
  2.637991016756e-01 
  4.941255794091e-01 
  3.262880769321e-01 
  5.566145546656e-01 
  6.191035299222e-01 
  4.755935352705e-01 
  5.084912114745e-01 
  5.413888876784e-01 
  5.485012728466e-01 
  5.813989490506e-01 
  6.214090104227e-01 
  3.416627529696e-01 
  1.752340487685e-01 
  8.805344567385e-03 
  3.782868622134e-01 
  2.118581580123e-01 
  4.149109714571e-01 
  7.829700462358e-01 
  6.806392232604e-01 
  5.783084002850e-01 
  7.064908274931e-01 
  6.041600045178e-01 
  6.300116087505e-01 
  4.681032278609e-01 
  4.499800102184e-01 
  4.318567925758e-01 
  5.058494379279e-01 
  4.877262202853e-01 
  5.435956479948e-01 
  1.747275631005e-03 
  4.936392074721e-03 
  8.125508518436e-03 
  1.735650926471e-01 
  1.767542090908e-01 
  3.453829096632e-01 
  5.567827690408e-02 
  2.497167154754e-02 
 -5.734933809003e-03 
  2.549412116486e-02 
 -5.212484191685e-03 
 -4.690034574366e-03 
  5.189619396832e-01 
  5.334326735727e-01 
  5.479034074622e-01 
  5.015306891079e-01 
  5.160014229974e-01 
  4.840994385326e-01 
  5.500216090969e-01 
  5.592303336005e-01 
  5.684390581041e-01 
  5.608891724583e-01 
  5.700978969619e-01 
  5.717567358197e-01 
  5.672797612730e-01 
  5.403149601896e-01 
  5.133501591062e-01 
  5.393130914578e-01 
  5.123482903744e-01 
  5.113464216425e-01 
  5.140453988131e-01 
  5.401338278836e-01 
  5.662222569541e-01 
  5.303057485216e-01 
  5.563941775921e-01 
  5.465660982301e-01 
  5.103968828880e-01 
  5.127218181350e-01 
  5.150467533820e-01 
  4.546325305309e-01 
  4.569574657780e-01 
  3.988681781739e-01 
 -3.605089061020e-02 
 -6.971526815424e-02 
 -1.033796456983e-01 
  1.071230550047e-01 
  7.345867746065e-02 
  2.502970006196e-01 
  5.505810409535e-01 
  4.989716921944e-01 
  4.473623434353e-01 
  5.140697254583e-01 
  4.624603766992e-01 
  4.775584099632e-01 
  5.504271478060e-01 
  5.442924620962e-01 
  5.381577763864e-01 
  5.008183894671e-01 
  4.946837037573e-01 
  4.512096311282e-01 
  3.346635243453e-01 
  4.062657040421e-01 
  4.778678837389e-01 
  3.889911450681e-01 
  4.605933247649e-01 
  4.433187657909e-01 
  4.544281819525e-01 
  3.970288772501e-01 
  3.396295725477e-01 
  3.770077951616e-01 
  3.196084904592e-01 
  2.995874083707e-01 
  4.765483840423e-01 
  4.603945403594e-01 
  4.442406966765e-01 
  4.813916181901e-01 
  4.652377745072e-01 
  4.862348523379e-01 
  4.440416849986e-01 
  4.586231731964e-01 
  4.732046613941e-01 
  3.899088930962e-01 
  4.044903812939e-01 
  3.357761011937e-01 
  5.127377882875e-01 
  4.980454164715e-01 
  4.833530446555e-01 
  5.356182780058e-01 
  5.209259061898e-01 
  5.584987677241e-01 
  4.812397705548e-01 
  4.823245957098e-01 
  4.834094208647e-01 
  5.004689209903e-01 
  5.015537461453e-01 
  5.196980714259e-01 
  3.406787606674e-01 
  3.231783046950e-01 
  3.056778487225e-01 
  2.611460127935e-01 
  2.436455568210e-01 
  1.816132649196e-01 
  3.352553956940e-01 
  3.877682418360e-01 
  4.402810879779e-01 
  3.191925955173e-01 
  3.717054416592e-01 
  3.031297953405e-01 
  4.379976757376e-01 
  3.837660415863e-01 
  3.295344074350e-01 
  3.717899516611e-01 
  3.175583175098e-01 
  3.055822275847e-01 
  5.183475673733e-01 
  5.031969450204e-01 
  4.880463226674e-01 
  4.976054057501e-01 
  4.824547833972e-01 
  4.768632441270e-01 
  3.980892117938e-01 
  3.926762083874e-01 
  3.872632049811e-01 
  3.122547464775e-01 
  3.068417430712e-01 
  2.264202811613e-01 
  3.990998255562e-01 
  4.580483426316e-01 
  5.169968597069e-01 
  3.947853785948e-01 
  4.537338956702e-01 
  3.904709316335e-01 
  2.246348807487e-01 
  2.245184209582e-01 
  2.244019611676e-01 
  1.122017659135e-01 
  1.120853061230e-01 
 -2.313489216232e-04 
  2.264635396183e-01 
  2.258768398770e-01 
  2.252901401357e-01 
  3.072184931665e-01 
  3.066317934252e-01 
  3.879734467148e-01 
  2.940614527047e-01 
  1.495437316216e-01 
  5.026010538398e-03 
  1.469145835642e-01 
  2.396862481066e-03 
 -2.322855762658e-04 
  3.101661443129e-02 
  1.609825458256e-02 
  1.179894733833e-03 
  2.401884513158e-01 
  2.252700914671e-01 
  4.493602882004e-01 
  3.883329832893e-01 
  3.770950368033e-01 
  3.658570903174e-01 
  3.077682161635e-01 
  2.965302696776e-01 
  2.272034490378e-01 
  4.162874412642e-01 
  2.079642944001e-01 
 -3.588524639968e-04 
  2.249269884161e-01 
  1.660384155206e-02 
  3.356653556812e-02 
  4.742673520890e-01 
  4.912100541827e-01 
  5.081527562763e-01 
  4.470989618062e-01 
  4.640416638999e-01 
  4.199305715234e-01 
  5.067864214282e-01 
  4.913976350506e-01 
  4.760088486730e-01 
  4.971564610408e-01 
  4.817676746632e-01 
  4.875265006534e-01 
  3.617806399020e-01 
  3.919463162564e-01 
  4.221119926107e-01 
  3.246357874547e-01 
  3.548014638091e-01 
  2.874909350074e-01 
  4.191313534815e-01 
  3.913464690898e-01 
  3.635615846982e-01 
  4.460958898124e-01 
  4.183110054208e-01 
  4.730604261434e-01 
  2.898193956887e-01 
  3.576013978837e-01 
  4.253834000787e-01 
  3.382062172510e-01 
  4.059882194460e-01 
  3.865930388133e-01 
  3.651949197673e-01 
  3.245872307614e-01 
  2.839795417554e-01 
  2.955937417128e-01 
  2.549860527069e-01 
  2.259925636583e-01 
  5.066634754208e-01 
  5.076391642817e-01 
  5.086148531427e-01 
  4.635781250786e-01 
  4.645538139396e-01 
  4.204927747365e-01 
  4.726458372128e-01 
  4.191864369863e-01 
  3.657270367599e-01 
  4.303633857944e-01 
  3.769039855679e-01 
  3.880809343760e-01 
  5.166402842746e-01 
  4.941397188077e-01 
  4.716391533408e-01 
  4.523797231296e-01 
  4.298791576627e-01 
  3.881191619846e-01 
  2.944124444074e-01 
  3.359029108797e-01 
  3.773933773519e-01 
  1.495332256849e-01 
  1.910236921572e-01 
  4.654006962430e-03 
  4.798716871340e-01 
  4.631167612455e-01 
  4.463618353570e-01 
  5.184699505622e-01 
  5.017150246737e-01 
  5.570682139905e-01 
  4.265382335666e-02 
  1.172981904850e-01 
  1.919425576133e-01 
  5.676936601459e-02 
  1.314137331429e-01 
  7.088490867251e-02 
  5.941978292662e-02 
  2.647564949270e-02 
 -6.468483941224e-03 
  1.183397407246e-01 
  8.539560729071e-02 
  1.772596985227e-01 
  5.419462907108e-02 
  2.437011842510e-02 
 -5.454392220873e-03 
  2.534656183339e-02 
 -4.477948812587e-03 
 -3.501505404301e-03 
  1.811891855626e-01 
  9.081103333834e-02 
  4.328811140311e-04 
  2.337825464666e-01 
  1.434043942423e-01 
  2.863759073706e-01 
  4.408562707519e-01 
  3.622659576386e-01 
  2.836756445253e-01 
  2.178209540201e-01 
  1.392306409067e-01 
 -5.214362711801e-03 
  4.557602829864e-01 
  5.120119490873e-01 
  5.682636151883e-01 
  4.559239163527e-01 
  5.121755824536e-01 
  4.560875497189e-01 
  4.473099001279e-01 
  4.541997641086e-01 
  4.610896280893e-01 
  3.692526090708e-01 
  3.761424730514e-01 
  2.911953180136e-01 
  2.647332809398e-03 
  9.119151890289e-02 
  1.797357049964e-01 
 -4.361177049727e-04 
  8.810806838852e-02 
 -3.519568219344e-03 
  3.433861654738e-01 
  2.618801701055e-01 
  1.803741747373e-01 
  3.185064046827e-01 
  2.370004093145e-01 
  2.936266438917e-01 
 -1.627483916098e-03 
  4.794728841996e-03 
  1.121694160009e-02 
  2.215833232572e-01 
  2.280055360153e-01 
  4.447941304306e-01 
  4.732819886650e-01 
  2.421041748450e-01 
  1.092636102500e-02 
  4.723101993468e-01 
  2.411323855268e-01 
  4.713384100287e-01 
  2.753078098728e-01 
  2.001445028436e-01 
  1.249811958144e-01 
  4.077899638116e-01 
  3.326266567824e-01 
  5.402721177503e-01 
  2.285353997606e-01 
  1.158908038513e-01 
  3.246207941905e-03 
  2.036172023060e-01 
  9.097260639668e-02 
  1.786990048514e-01 
  6.399079193963e-01 
  3.225170034519e-01 
  5.126087507464e-03 
  3.284268412909e-01 
  1.103592534655e-02 
  1.694576318563e-02 
  6.199111284801e-01 
  3.097076425311e-01 
 -4.958434179314e-04 
  3.183447708597e-01 
  8.141284910697e-03 
  1.677841323933e-02 
  4.226189439377e-01 
  2.161448218517e-01 
  9.670699765767e-03 
  3.906796563924e-01 
  1.842055343064e-01 
  3.587403688471e-01 
  4.379951695886e-01 
  2.211272596300e-01 
  4.259349671491e-03 
  5.200770591620e-01 
  3.032091492035e-01 
  6.021589487355e-01 
  4.961909128046e-01 
  4.677834762176e-01 
  4.393760396307e-01 
  4.523154950067e-01 
  4.239080584197e-01 
  4.084400772088e-01 
  6.843981265243e-01 
  3.457324452517e-01 
  7.066763979101e-03 
  3.425992692693e-01 
  3.933587996712e-03 
  8.004120143223e-04 
  5.638396731839e-01 
  5.859534193515e-01 
  6.080671655192e-01 
  6.161544532774e-01 
  6.382681994450e-01 
  6.684692333709e-01 
  5.993376031307e-01 
  5.850989357763e-01 
  5.708602684218e-01 
  5.233144636140e-01 
  5.090757962596e-01 
  4.472913240973e-01 
  5.297725811566e-01 
  4.568673393476e-01 
  3.839620975387e-01 
  5.199939198332e-01 
  4.470886780242e-01 
  5.102152585098e-01 
  3.879196334337e-01 
  4.059696615015e-01 
  4.240196895693e-01 
  4.484440601739e-01 
  4.664940882417e-01 
  5.089684869142e-01 
  5.179445598800e-01 
  5.125828502375e-01 
  5.072211405949e-01 
  5.926477589173e-01 
  5.872860492747e-01 
  6.673509579545e-01 
  6.679146032828e-01 
  7.071296636296e-01 
  7.463447239764e-01 
  5.917911400035e-01 
  6.310062003503e-01 
  5.156676767242e-01 
  6.687721855944e-01 
  6.428190073506e-01 
  6.168658291068e-01 
  6.761692214092e-01 
  6.502160431654e-01 
  6.835662572240e-01 
  5.586468602786e-01 
  6.105882846706e-01 
  6.625297090626e-01 
  5.332456233460e-01 
  5.851870477380e-01 
  5.078443864133e-01 
  6.786320415512e-01 
  6.625164715415e-01 
  6.464009015317e-01 
  7.175158564189e-01 
  7.014002864091e-01 
  7.563996712865e-01 
  6.822845099338e-01 
  6.581395772840e-01 
  6.339946446343e-01 
  3.540657821192e-01 
  3.299208494695e-01 
  2.584705430460e-02 
  5.464128518995e-01 
  6.487815398854e-01 
  7.511502278714e-01 
  6.652196837150e-01 
  7.675883717009e-01 
  7.840265155305e-01 
  7.507689484104e-01 
  6.462732342279e-01 
  5.417775200453e-01 
  6.313133877743e-01 
  5.268176735918e-01 
  5.118578271382e-01 
  4.471603705175e-01 
  4.901627984339e-01 
  5.331652263504e-01 
  5.172116806173e-01 
  5.602141085338e-01 
  5.872629907172e-01 
  5.320860639324e-01 
  4.892419514275e-01 
  4.463978389226e-01 
  4.557467105859e-01 
  4.129025980810e-01 
  3.794073572394e-01 
  7.671513376190e-01 
  7.623145393294e-01 
  7.574777410397e-01 
  7.042910262080e-01 
  6.994542279184e-01 
  6.414307147971e-01 
  6.815822875791e-01 
  7.134832148134e-01 
  7.453841420477e-01 
  6.745571059420e-01 
  7.064580331763e-01 
  6.675319243049e-01 
  1.115185760398e-02 
  3.285366997720e-01 
  6.459215419399e-01 
  3.452470707104e-01 
  6.626319128784e-01 
  6.793422838169e-01 