# vtk DataFile Version 2
NuDG++ 2D simulation
ASCII
DATASET UNSTRUCTURED_GRID

POINTS 2244 double
 -1.656250060000e-01  -2.000000030000e-01  0.0
 -1.828125045000e-01  -1.772221997500e-01  0.0
 -2.000000030000e-01  -1.544443965000e-01  0.0
 -1.828125045000e-01  -2.000000030000e-01  0.0
 -2.000000030000e-01  -1.772221997500e-01  0.0
 -2.000000030000e-01  -2.000000030000e-01  0.0
 -6.428571790000e-02  -1.700000018000e-01  0.0
 -8.058035746000e-02  -1.850000024000e-01  0.0
 -9.687499702000e-02  -2.000000030000e-01  0.0
 -6.339285895000e-02  -1.850000024000e-01  0.0
 -7.968749851000e-02  -2.000000030000e-01  0.0
 -6.250000000000e-02  -2.000000030000e-01  0.0
 -2.000000030000e-01  -1.544443965000e-01  0.0
 -1.750000045000e-01  -1.379364989500e-01  0.0
 -1.500000060000e-01  -1.214286014000e-01  0.0
 -2.000000030000e-01  -1.316666491500e-01  0.0
 -1.750000045000e-01  -1.151587516000e-01  0.0
 -2.000000030000e-01  -1.088889018000e-01  0.0
 -1.500000060000e-01  -1.214286014000e-01  0.0
 -1.750000045000e-01  -1.379364989500e-01  0.0
 -2.000000030000e-01  -1.544443965000e-01  0.0
 -1.500000060000e-01  -1.457143016000e-01  0.0
 -1.750000045000e-01  -1.622221991500e-01  0.0
 -1.500000060000e-01  -1.700000018000e-01  0.0
 -1.500000060000e-01  -7.285714149000e-02  0.0
 -1.750000045000e-01  -9.087302164500e-02  0.0
 -2.000000030000e-01  -1.088889018000e-01  0.0
 -1.500000060000e-01  -9.714287144500e-02  0.0
 -1.750000045000e-01  -1.151587516000e-01  0.0
 -1.500000060000e-01  -1.214286014000e-01  0.0
  1.832975030000e+00  -4.625000060000e-02  0.0
  1.853987515000e+00  -1.231250018000e-01  0.0
  1.875000000000e+00  -2.000000030000e-01  0.0
  1.916487515000e+00  -7.187499851000e-02  0.0
  1.937500000000e+00  -1.487499997100e-01  0.0
  2.000000000000e+00  -9.749999642000e-02  0.0
 -1.500000060000e-01  -1.700000018000e-01  0.0
 -1.360000037000e-01  -1.525000036000e-01  0.0
 -1.220000014000e-01  -1.350000054000e-01  0.0
 -1.500000060000e-01  -1.457143016000e-01  0.0
 -1.360000037000e-01  -1.282143034000e-01  0.0
 -1.500000060000e-01  -1.214286014000e-01  0.0
  2.849999964000e-01  -2.333333530000e-02  0.0
  2.837499976000e-01  -8.166666795000e-02  0.0
  2.824999988000e-01  -1.400000006000e-01  0.0
  3.174999952000e-01  -4.666666780000e-02  0.0
  3.162499964000e-01  -1.050000004500e-01  0.0
  3.499999940000e-01  -7.000000030000e-02  0.0
 -1.071429029000e-01  -1.700000018000e-01  0.0
 -8.571431040000e-02  -1.700000018000e-01  0.0
 -6.428571790000e-02  -1.700000018000e-01  0.0
 -9.857145324000e-02  -1.525000036000e-01  0.0
 -7.714286074000e-02  -1.525000036000e-01  0.0
 -9.000000358000e-02  -1.350000054000e-01  0.0
 -1.312499940000e-01  -2.000000030000e-01  0.0
 -1.191964484500e-01  -1.850000024000e-01  0.0
 -1.071429029000e-01  -1.700000018000e-01  0.0
 -1.406250000000e-01  -1.850000024000e-01  0.0
 -1.285714544500e-01  -1.700000018000e-01  0.0
 -1.500000060000e-01  -1.700000018000e-01  0.0
 -1.220000014000e-01  -1.350000054000e-01  0.0
 -1.060000024900e-01  -1.350000054000e-01  0.0
 -9.000000358000e-02  -1.350000054000e-01  0.0
 -1.185000017500e-01  -1.175000034500e-01  0.0
 -1.025000028400e-01  -1.175000034500e-01  0.0
 -1.150000021000e-01  -1.000000015000e-01  0.0
 -9.000000358000e-02  -1.350000054000e-01  0.0
 -1.060000024900e-01  -1.350000054000e-01  0.0
 -1.220000014000e-01  -1.350000054000e-01  0.0
 -9.857145324000e-02  -1.525000036000e-01  0.0
 -1.145714521500e-01  -1.525000036000e-01  0.0
 -1.071429029000e-01  -1.700000018000e-01  0.0
 -7.778175920000e-02  -9.192386270000e-02  0.0
 -9.639088065000e-02  -9.596193210000e-02  0.0
 -1.150000021000e-01  -1.000000015000e-01  0.0
 -8.389088139000e-02  -1.134619340500e-01  0.0
 -1.025000028400e-01  -1.175000034500e-01  0.0
 -9.000000358000e-02  -1.350000054000e-01  0.0
 -1.220000014000e-01  -1.350000054000e-01  0.0
 -1.185000017500e-01  -1.175000034500e-01  0.0
 -1.150000021000e-01  -1.000000015000e-01  0.0
 -1.360000037000e-01  -1.282143034000e-01  0.0
 -1.325000040500e-01  -1.107143014500e-01  0.0
 -1.500000060000e-01  -1.214286014000e-01  0.0
 -7.778175920000e-02  -9.192386270000e-02  0.0
 -8.389088139000e-02  -1.134619340500e-01  0.0
 -9.000000358000e-02  -1.350000054000e-01  0.0
 -6.639088876500e-02  -1.022535823500e-01  0.0
 -7.250001095500e-02  -1.237916537000e-01  0.0
 -5.500001833000e-02  -1.125833020000e-01  0.0
 -1.071429029000e-01  -1.700000018000e-01  0.0
 -1.145714521500e-01  -1.525000036000e-01  0.0
 -1.220000014000e-01  -1.350000054000e-01  0.0
 -1.285714544500e-01  -1.700000018000e-01  0.0
 -1.360000037000e-01  -1.525000036000e-01  0.0
 -1.500000060000e-01  -1.700000018000e-01  0.0
  6.250000093000e-03  -2.000000030000e-01  0.0
  4.062500153650e-02  -2.000000030000e-01  0.0
  7.500000298000e-02  -2.000000030000e-01  0.0
  1.383928512150e-02  -1.850000024000e-01  0.0
  4.821428656500e-02  -1.850000024000e-01  0.0
  2.142857015000e-02  -1.700000018000e-01  0.0
 -1.500000060000e-01  -7.285714149000e-02  0.0
 -1.500000060000e-01  -9.714287144500e-02  0.0
 -1.500000060000e-01  -1.214286014000e-01  0.0
 -1.325000040500e-01  -8.642857149500e-02  0.0
 -1.325000040500e-01  -1.107143014500e-01  0.0
 -1.150000021000e-01  -1.000000015000e-01  0.0
 -2.000000030000e-01  -6.333333254000e-02  0.0
 -1.750000045000e-01  -6.809523701500e-02  0.0
 -1.500000060000e-01  -7.285714149000e-02  0.0
 -1.750000045000e-01  -4.380952660000e-02  0.0
 -1.500000060000e-01  -4.857143107500e-02  0.0
 -1.500000060000e-01  -2.428572066000e-02  0.0
 -2.000000030000e-01  -6.333333254000e-02  0.0
 -2.000000030000e-01  -8.611111717000e-02  0.0
 -2.000000030000e-01  -1.088889018000e-01  0.0
 -1.750000045000e-01  -6.809523701500e-02  0.0
 -1.750000045000e-01  -9.087302164500e-02  0.0
 -1.500000060000e-01  -7.285714149000e-02  0.0
 -2.000000030000e-01  -6.333333254000e-02  0.0
 -1.750000045000e-01  -4.380952660000e-02  0.0
 -1.500000060000e-01  -2.428572066000e-02  0.0
 -2.000000030000e-01  -4.055555630500e-02  0.0
 -1.750000045000e-01  -2.103175036500e-02  0.0
 -2.000000030000e-01  -1.777778007000e-02  0.0
 -1.500000060000e-01  -2.428572066000e-02  0.0
 -1.500000060000e-01  -4.857143107500e-02  0.0
 -1.500000060000e-01  -7.285714149000e-02  0.0
 -1.281259023000e-01  -2.896608505500e-02  0.0
 -1.281259023000e-01  -5.325179547000e-02  0.0
 -1.062517986000e-01  -3.364644945000e-02  0.0
 -1.099999994000e-01   1.996667010000e-08  0.0
 -1.300000027000e-01  -1.214285034666e-02  0.0
 -1.500000060000e-01  -2.428572066000e-02  0.0
 -1.081258990000e-01  -1.682321474166e-02  0.0
 -1.281259023000e-01  -2.896608505500e-02  0.0
 -1.062517986000e-01  -3.364644945000e-02  0.0
 -1.500000060000e-01  -2.428572066000e-02  0.0
 -1.500000060000e-01   0.000000000000e+00  0.0
 -1.500000060000e-01   2.428572066000e-02  0.0
 -1.750000045000e-01  -2.103175036500e-02  0.0
 -1.750000045000e-01   3.253970295000e-03  0.0
 -2.000000030000e-01  -1.777778007000e-02  0.0
 -1.500000060000e-01  -7.285714149000e-02  0.0
 -1.226314045700e-01  -6.892856210000e-02  0.0
 -9.526280314000e-02  -6.499998271000e-02  0.0
 -1.281259023000e-01  -5.325179547000e-02  0.0
 -1.007573008700e-01  -4.932321608000e-02  0.0
 -1.062517986000e-01  -3.364644945000e-02  0.0
  3.499999940000e-01   1.400000006000e-01  0.0
  4.021931737500e-01   1.224999986500e-01  0.0
  4.543863535000e-01   1.049999967000e-01  0.0
  4.187500029500e-01   1.749999970000e-01  0.0
  4.709431827000e-01   1.574999950500e-01  0.0
  4.875000119000e-01   2.099999934000e-01  0.0
 -7.101409137000e-02  -4.349999130000e-02  0.0
 -8.313844725500e-02  -5.424998700500e-02  0.0
 -9.526280314000e-02  -6.499998271000e-02  0.0
 -6.449843011500e-02  -5.250913650000e-02  0.0
 -7.662278600000e-02  -6.325913220500e-02  0.0
 -5.798276886000e-02  -6.151828170000e-02  0.0
 -9.526280314000e-02  -6.499998271000e-02  0.0
 -1.226314045700e-01  -6.892856210000e-02  0.0
 -1.500000060000e-01  -7.285714149000e-02  0.0
 -1.051314026200e-01  -8.249999210500e-02  0.0
 -1.325000040500e-01  -8.642857149500e-02  0.0
 -1.150000021000e-01  -1.000000015000e-01  0.0
 -6.181925908000e-02  -1.656441018000e-02  0.0
 -7.051259093000e-02  -1.954082492500e-02  0.0
 -7.920592278000e-02  -2.251723967000e-02  0.0
 -5.862244405000e-02  -2.428220026000e-02  0.0
 -6.731577590000e-02  -2.725861500500e-02  0.0
 -5.542562902000e-02  -3.199999034000e-02  0.0
 -7.920592278000e-02  -2.251723967000e-02  0.0
 -9.272886069000e-02  -2.808184456000e-02  0.0
 -1.062517986000e-01  -3.364644945000e-02  0.0
 -7.511000707500e-02  -3.300861548500e-02  0.0
 -8.863294498500e-02  -3.857322037500e-02  0.0
 -7.101409137000e-02  -4.349999130000e-02  0.0
 -7.101409137000e-02  -4.349999130000e-02  0.0
 -6.321986019500e-02  -3.774999082000e-02  0.0
 -5.542562902000e-02  -3.199999034000e-02  0.0
 -7.511000707500e-02  -3.300861548500e-02  0.0
 -6.731577590000e-02  -2.725861500500e-02  0.0
 -7.920592278000e-02  -2.251723967000e-02  0.0
 -7.920592278000e-02  -2.251723967000e-02  0.0
 -9.460296109000e-02  -1.125860985166e-02  0.0
 -1.099999994000e-01   1.996667010000e-08  0.0
 -9.272886069000e-02  -2.808184456000e-02  0.0
 -1.081258990000e-01  -1.682321474166e-02  0.0
 -1.062517986000e-01  -3.364644945000e-02  0.0
 -7.778175920000e-02  -9.192386270000e-02  0.0
 -6.788226403000e-02  -7.672107220000e-02  0.0
 -5.798276886000e-02  -6.151828170000e-02  0.0
 -8.652228117000e-02  -7.846192270500e-02  0.0
 -7.662278600000e-02  -6.325913220500e-02  0.0
 -9.526280314000e-02  -6.499998271000e-02  0.0
 -7.101409137000e-02  -4.349999130000e-02  0.0
 -8.863294498500e-02  -3.857322037500e-02  0.0
 -1.062517986000e-01  -3.364644945000e-02  0.0
 -8.313844725500e-02  -5.424998700500e-02  0.0
 -1.007573008700e-01  -4.932321608000e-02  0.0
 -9.526280314000e-02  -6.499998271000e-02  0.0
 -7.778175920000e-02  -9.192386270000e-02  0.0
 -8.652228117000e-02  -7.846192270500e-02  0.0
 -9.526280314000e-02  -6.499998271000e-02  0.0
 -9.639088065000e-02  -9.596193210000e-02  0.0
 -1.051314026200e-01  -8.249999210500e-02  0.0
 -1.150000021000e-01  -1.000000015000e-01  0.0
[...]
POINT_DATA 2244
SCALARS field1 double 1
LOOKUP_TABLE default
  2.901408592115e-03 
  1.136612449359e-01 
  2.244210812797e-01 
  1.322416560311e-03 
  1.120822529041e-01 
 -2.565754714922e-04 
  3.284150579480e-01 
  1.631984340950e-01 
 -2.018189758082e-03 
  1.651778177889e-01 
 -3.880606417076e-05 
  1.940577629741e-03 
  2.219639092915e-01 
  2.870024643953e-01 
  3.520410194991e-01 
  3.059636401046e-01 
  3.710021952084e-01 
  3.899633709177e-01 
  3.530566179006e-01 
  2.874169539495e-01 
  2.217772899984e-01 
  2.655532221128e-01 
  1.999135581617e-01 
  1.780498263251e-01 
  4.851700090724e-01 
  4.377934470139e-01 
  3.904168849554e-01 
  4.209065063724e-01 
  3.735299443139e-01 
  3.566430036724e-01 
  2.544336711720e-01 
  9.532196609479e-02 
 -6.378973898246e-02 
  2.999100858415e-01 
  1.407983807643e-01 
  3.453865005110e-01 
  1.786914660403e-01 
  2.559538379386e-01 
  3.332162098370e-01 
  2.663771112358e-01 
  3.436394831341e-01 
  3.540627564312e-01 
  4.719440315027e-01 
  4.490511769591e-01 
  4.261583224155e-01 
  4.738981954532e-01 
  4.510053409097e-01 
  4.758523594038e-01 
  2.419738707919e-01 
  2.854143658680e-01 
  3.288548609441e-01 
  3.093046859468e-01 
  3.527451810229e-01 
  3.766355011018e-01 
  1.351361784074e-04 
  1.214002953417e-01 
  2.426654545050e-01 
  8.658380064226e-02 
  2.078489598055e-01 
  1.730324651061e-01 
  3.294672995392e-01 
  3.520956176467e-01 
  3.747239357543e-01 
  3.901050351417e-01 
  4.127333532492e-01 
  4.507427707442e-01 
  3.735462085038e-01 
  3.516986247929e-01 
  3.298510410820e-01 
  3.076675936477e-01 
  2.858200099369e-01 
  2.417889787917e-01 
  4.979265709572e-01 
  4.742746024485e-01 
  4.506226339399e-01 
  4.380384487137e-01 
  4.143864802051e-01 
  3.781503264702e-01 
  3.315299175819e-01 
  3.907635498192e-01 
  4.499971820566e-01 
  3.432319835559e-01 
  4.024656157932e-01 
  3.549340495299e-01 
  4.982935677774e-01 
  4.376068424997e-01 
  3.769201172220e-01 
  5.026918614646e-01 
  4.420051361869e-01 
  5.070901551518e-01 
  2.408170817298e-01 
  2.869503229868e-01 
  3.330835642439e-01 
  2.088885274283e-01 
  2.550217686853e-01 
  1.769599731268e-01 
  1.429837903806e-03 
  3.728636619741e-03 
  6.027435335675e-03 
  2.363518452599e-01 
  2.386506439758e-01 
  4.712738526159e-01 
  4.847665297797e-01 
  4.201265705793e-01 
  3.554866113790e-01 
  4.670436539990e-01 
  4.024036947986e-01 
  4.493207782183e-01 
  5.031367571020e-01 
  4.922447443711e-01 
  4.813527316401e-01 
  5.165157827070e-01 
  5.056237699761e-01 
  5.298948083120e-01 
  5.017740521296e-01 
  4.462565092535e-01 
  3.907389663774e-01 
  4.920787180641e-01 
  4.365611751880e-01 
  4.823833839985e-01 
  5.047042567490e-01 
  5.174901570361e-01 
  5.302760573232e-01 
  5.322868723352e-01 
  5.450727726223e-01 
  5.598694879214e-01 
  5.302488076326e-01 
  5.079244866773e-01 
  4.856001657220e-01 
  4.963808103780e-01 
  4.740564894227e-01 
  4.625128131234e-01 
  4.366774598093e-01 
  4.837261376620e-01 
  5.307748155148e-01 
  4.465857223171e-01 
  4.936344001698e-01 
  4.564939848249e-01 
  5.251463877272e-01 
  5.320786101313e-01 
  5.390108325355e-01 
  5.428490813070e-01 
  5.497813037112e-01 
  5.605517748869e-01 
  4.845910476829e-01 
  4.723135984521e-01 
  4.600361492213e-01 
  4.727105034583e-01 
  4.604330542275e-01 
  4.608299592336e-01 
  4.170000794284e-01 
  4.670967753981e-01 
  5.171934713679e-01 
  2.418596699903e-01 
  2.919563659600e-01 
  6.671926055215e-02 
  4.281591529563e-01 
  4.475772468770e-01 
  4.669953407976e-01 
  4.779494382712e-01 
  4.973675321918e-01 
  5.277397235860e-01 
  4.621110534134e-01 
  4.734819839336e-01 
  4.848529144539e-01 
  4.574038640633e-01 
  4.687747945836e-01 
  4.526966747133e-01 
  1.671587494242e-01 
  2.513512810372e-01 
  3.355438126503e-01 
  2.207014068126e-01 
  3.048939384257e-01 
  2.742440642011e-01 
  3.221959958844e-01 
  3.881715748192e-01 
  4.541471537539e-01 
  3.752470528702e-01 
  4.412226318050e-01 
  4.282981098560e-01 
  4.300813336563e-01 
  3.556943324585e-01 
  2.813073312608e-01 
  3.802729019762e-01 
  3.058859007785e-01 
  3.304644702962e-01 
  3.212120074811e-01 
  3.763812665686e-01 
  4.315505256560e-01 
  3.886914060840e-01 
  4.438606651715e-01 
  4.561708046869e-01 
  4.984280129676e-01 
  5.153269820034e-01 
  5.322259510392e-01 
  4.817652414708e-01 
  4.986642105066e-01 
  4.651024699741e-01 
  4.311099093076e-01 
  4.442290436620e-01 
  4.573481780163e-01 
  4.501759897200e-01 
  4.632951240744e-01 
  4.692420701324e-01 
  4.934276055658e-01 
  4.774815286328e-01 
  4.615354516998e-01 
  4.719859279057e-01 
  4.560398509727e-01 
  4.505442502457e-01 
  3.310596175904e-01 
  2.521729988285e-01 
  1.732863800666e-01 
  3.164960023250e-01 
  2.376093835631e-01 
  3.019323870596e-01 
  5.062749113550e-01 
  4.416337934274e-01 
  3.769926754999e-01 
  4.180905364431e-01 
  3.534494185156e-01 
  3.299061615313e-01 
  2.911462816215e-01 
  3.144374341632e-01 
  3.377285867050e-01 
  3.871166567460e-01 
  4.104078092877e-01 
  4.830870318704e-01 
  5.245485548441e-01 
  4.699250162963e-01 
  4.153014777486e-01 
  5.481614557859e-01 
  4.935379172382e-01 
  5.717743567278e-01 
  5.209017307574e-01 
  5.125609254735e-01 
  5.042201201896e-01 
  4.256391075379e-01 
  4.172983022540e-01 
  3.303764843184e-01 
  4.959579436967e-01 
  5.605094821123e-01 
  6.250610205280e-01 
  5.133267972579e-01 
  5.778783356735e-01 
  5.306956508190e-01 
  6.283642124025e-01 
  5.626471130731e-01 
  4.969300137438e-01 
  5.713799686403e-01 
  5.056628693109e-01 
  5.143957248781e-01 
  7.147141658394e-01 
  6.725534293120e-01 
  6.303926927845e-01 
  6.121765847874e-01 
  5.700158482600e-01 
  5.096390037355e-01 
  6.096322973282e-01 
  5.698227118842e-01 
  5.300131264403e-01 
  6.221248789602e-01 
  5.823152935163e-01 
  6.346174605922e-01 
  5.060501496763e-01 
  5.173434896309e-01 
  5.286368295855e-01 
  6.122387012324e-01 
  6.235320411870e-01 
  7.184272527886e-01 
  5.235698057445e-01 
  4.278214012098e-01 
  3.320729966750e-01 
  4.694317783078e-01 
  3.736833737730e-01 
  4.152937508711e-01 
  7.680850845093e-01 
  7.445904517569e-01 
  7.210958190045e-01 
  6.499494138286e-01 
  6.264547810761e-01 
  5.318137431478e-01 
 -6.303348129002e-05 
  2.963259492316e-01 
  5.927149319446e-01 
 -4.987568389206e-03 
  2.914014143237e-01 
 -9.912103297121e-03 
  7.348261294516e-01 
  6.791738008910e-01 
  6.235214723303e-01 
  6.989679658637e-01 
  6.433156373030e-01 
  6.631098022757e-01 
  6.185045319286e-01 
  6.766867623652e-01 
  7.348689928018e-01 
  6.851572947606e-01 
  7.433395251972e-01 
  7.518100575925e-01 
  6.607494826648e-01 
  6.386937526691e-01 
  6.166380226735e-01 
  3.368313613761e-01 
  3.147756313805e-01 
  1.291324008752e-02 
  7.200336961938e-01 
  6.929649133917e-01 
  6.658961305896e-01 
  6.777837787043e-01 
  6.507149959022e-01 
  6.355338612148e-01 
  7.118765884735e-01 
  6.548158277924e-01 
  5.977550671113e-01 
  7.353564261663e-01 
  6.782956654852e-01 
  7.588362638591e-01 
  7.694343374901e-01 
  6.507798236400e-01 
  5.321253097898e-01 
  6.707362137319e-01 
  5.520816998817e-01 
  5.720380899736e-01 
  4.161992341078e-01 
  4.376379825991e-01 
  4.590767310904e-01 
  4.944432299121e-01 
  5.158819784034e-01 
  5.726872257164e-01 
  6.069075191594e-01 
  6.242965549886e-01 
  6.416855908177e-01 
  6.345634241271e-01 
  6.519524599563e-01 
  6.622193290948e-01 
 -1.531395585218e-03 
  1.423621956721e-01 
  2.862557869294e-01 
  6.715514375222e-03 
  1.506091056325e-01 
  1.496242433566e-02 
  2.814345043484e-01 
  3.528750111686e-01 
  4.243155179887e-01 
  3.679419097827e-01 
  4.393824166028e-01 
  4.544493152169e-01 
  4.118176566691e-01 
  2.084322442052e-01 
  5.046831741372e-03 
  2.066711466126e-01 
  3.285734148743e-03 
  1.524636556115e-03 
 -1.218223353431e-02 
  2.488133067656e-02 
  6.194489488744e-02 
  7.612095485950e-02 
  1.131845190704e-01 
  1.644241432533e-01 
  5.763284892714e-03 
 -3.302140157990e-03 
 -1.236756520869e-02 
  1.374995717655e-01 
  1.284341467148e-01 
  2.692358586384e-01 
  2.803437836002e-01 
  1.410080768670e-01 
  1.672370133735e-03 
  2.502943677877e-01 
  1.109586610544e-01 
  2.202449519751e-01 
  2.833360855195e-01 
  3.749914780632e-01 
  4.666468706069e-01 
  1.519247068312e-01 
  2.435800993749e-01 
  2.051332814294e-02 
 -1.725363352225e-02 
  7.167062427856e-02 
  1.605948820794e-01 
  1.251503228071e-01 
  2.140745806079e-01 
  2.675542791364e-01 
  5.737106749926e-03 
  6.577514244152e-03 
  7.417921738378e-03 
  3.345366034247e-01 
  3.353770109190e-01 
  6.633361000995e-01 
  1.198176889176e-02 
  3.144129473010e-01 
  6.168441257102e-01 
  6.356944574452e-03 
  3.087881229837e-01 
  7.321202571391e-04 
  4.445416981987e-01 
  2.232852694126e-01 
  2.028840626590e-03 
  4.045991471433e-01 
  1.833427183573e-01 
  3.646565960880e-01 
  5.031699344397e-03 
  2.477153844790e-01 
  4.903990696136e-01 
  1.349938567737e-02 
  2.561830708120e-01 
  2.196707201033e-02 
  1.755423814948e-02 
  3.120474681290e-01 
  6.065406981086e-01 
  3.365510569385e-01 
  6.310442869181e-01 
  6.555478757276e-01 
  4.172204804873e-01 
  2.130005513973e-01 
  8.780622307299e-03 
  4.375538714914e-01 
  2.333339424014e-01 
  4.578872624956e-01 
  2.473939785374e-01 
  1.242917938380e-01 
  1.189609138551e-03 
  1.256805479653e-01 
  2.578363265885e-03 
  3.967117393219e-03 
  3.247674908589e-02 
  2.576447085534e-01 
  4.828126680210e-01 
  3.185598830803e-01 
  5.437278425479e-01 
  6.046430170748e-01 
  4.648982496079e-01 
  4.979058354399e-01 
  5.309134212719e-01 
  5.358825131962e-01 
  5.688900990282e-01 
  6.068667767845e-01 
  3.370060929842e-01 
  1.728728108521e-01 
  8.739528719995e-03 
  3.731130754137e-01 
  2.089797932815e-01 
  4.092200578431e-01 
  7.675712185742e-01 
  6.681116518745e-01 
  5.686520851749e-01 
  6.930229629408e-01 
  5.935633962411e-01 
  6.184747073074e-01 
  4.575357192449e-01 
  4.403349558209e-01 
  4.231341923969e-01 
  4.952747385753e-01 
  4.780739751513e-01 
  5.330137579058e-01 
  1.720019142289e-03 
  4.854352279907e-03 
  7.988685417526e-03 
  1.712312920603e-01 
  1.743656251979e-01 
  3.407425649784e-01 
  5.429346139600e-02 
  2.437509659669e-02 
 -5.543268202619e-03 
  2.484203931513e-02 
 -5.076325484176e-03 
 -4.609382765733e-03 
  5.095865397397e-01 
  5.236908482531e-01 
  5.377951567665e-01 
  4.921702080365e-01 
  5.062745165499e-01 
  4.747538763332e-01 
  5.398805234963e-01 
  5.490319968533e-01 
  5.581834702104e-01 
  5.506524255589e-01 
  5.598038989159e-01 
  5.614243276215e-01 
  5.569979700771e-01 
  5.305431427866e-01 
  5.040883154962e-01 
  5.295557264773e-01 
  5.031008991868e-01 
  5.021134828775e-01 
  5.047512580887e-01 
  5.303576057861e-01 
  5.559639534835e-01 
  5.206244664083e-01 
  5.462308141058e-01 
  5.364976747280e-01 
  5.011660605145e-01 
  5.034871206278e-01 
  5.058081807411e-01 
  4.464184984516e-01 
  4.487395585649e-01 
  3.916709363887e-01 
 -3.380849544681e-02 
 -6.595326882897e-02 
 -9.809804221112e-02 
  1.145167600770e-01 
  8.237198669483e-02 
  2.628420156008e-01 
  5.404084766055e-01 
  4.894394446946e-01 
  4.384704127836e-01 
  5.043978274348e-01 
  4.534287955238e-01 
  4.683871782640e-01 
  5.402217256091e-01 
  5.342588445918e-01 
  5.282959635746e-01 
  4.912245846609e-01 
  4.852617036436e-01 
  4.422274437126e-01 
  3.277407351323e-01 
  3.982008729015e-01 
  4.686610106707e-01 
  3.811236949632e-01 
  4.515838327324e-01 
  4.345066547940e-01 
  4.454640891102e-01 
  3.889811471851e-01 
  3.324982052599e-01 
  3.691318431942e-01 
  3.126489012690e-01 
  2.927995972782e-01 
  4.673406861573e-01 
  4.514756462698e-01 
  4.356106063824e-01 
  4.720943322323e-01 
  4.562292923448e-01 
  4.768479783073e-01 
  4.353895590136e-01 
  4.497577788571e-01 
  4.641259987007e-01 
  3.821167707414e-01 
  3.964849905849e-01 
  3.288439824691e-01 
  5.032292656143e-01 
  4.886021406272e-01 
  4.739750156401e-01 
  5.255421333380e-01 
  5.109150083509e-01 
  5.478550010617e-01 
  4.719723120920e-01 
  4.730022128066e-01 
  4.740321135213e-01 
  4.911411241773e-01 
  4.921710248919e-01 
  5.103099362626e-01 
  3.335489750801e-01 
  3.163044703439e-01 
  2.990599656077e-01 
  2.553246868340e-01 
  2.380801820978e-01 
  1.771003985879e-01 
  3.283065350728e-01 
  3.799503558766e-01 
  4.315941766804e-01 
  3.124902121571e-01 
  3.641340329608e-01 
  2.966738892413e-01 
  4.293598971464e-01 
  3.762417050214e-01 
  3.231235128963e-01 
  3.641932095940e-01 
  3.110750174689e-01 
  2.990265220415e-01 
  5.090005258046e-01 
  4.937392348443e-01 
  4.784779438839e-01 
  4.886495791770e-01 
  4.733882882166e-01 
  4.682986325493e-01 
  3.908699479988e-01 
  3.854794440716e-01 
  3.800889401444e-01 
  3.066005756571e-01 
  3.012100717299e-01 
  2.223312033154e-01 
  3.918749593185e-01 
  4.498068019767e-01 
  5.077386446349e-01 
  3.875674934539e-01 
  4.454993361121e-01 
  3.832600275892e-01 
  2.205898215846e-01 
  2.206267772676e-01 
  2.206637329507e-01 
  1.102016764894e-01 
  1.102386321725e-01 
 -1.864686056966e-04 
  2.226679902769e-01 
  2.219437587231e-01 
  2.212195271693e-01 
  3.017380572425e-01 
  3.010138256887e-01 
  3.808081242081e-01 
  2.899789473661e-01 
  1.475639501509e-01 
  5.148952935817e-03 
  1.448444831968e-01 
  2.429485981656e-03 
 -2.899809725038e-04 
  3.187504424398e-02 
  1.653593332297e-02 
  1.196822401953e-03 
  2.375977621802e-01 
  2.222586512592e-01 
  4.433204801163e-01 
  3.812239883214e-01 
  3.702250052417e-01 
  3.592260221620e-01 
  3.022922250053e-01 
  2.912932419257e-01 
  2.233604616893e-01 
  4.111794189730e-01 
  2.052879431367e-01 
 -6.035326995474e-04 
  2.220938065032e-01 
  1.620233066695e-02 
  3.300819403345e-02 
  4.657890547499e-01 
  4.822343460251e-01 
  4.986796373003e-01 
  4.391103265174e-01 
  4.555556177927e-01 
  4.124315982850e-01 
  4.973747124416e-01 
  4.824056819428e-01 
  4.674366514439e-01 
  4.876825583839e-01 
  4.727135278850e-01 
  4.779904043261e-01 
  3.551159603384e-01 
  3.848673461101e-01 
  4.146187318818e-01 
  3.191844252830e-01 
  3.489358110547e-01 
  2.832528902277e-01 
  4.116371412624e-01 
  3.843012501211e-01 
  3.569653589797e-01 
  4.381495220731e-01 
  4.108136309317e-01 
  4.646619028838e-01 
  2.857081726507e-01 
  3.517435021601e-01 
  4.177788316694e-01 
  3.332391727266e-01 
  3.992745022360e-01 
  3.807701728025e-01 
  3.585183968750e-01 
  3.191018650253e-01 
  2.796853331757e-01 
  2.903059959800e-01 
  2.508894641304e-01 
  2.220935950850e-01 
  4.972435369577e-01 
  4.984903229146e-01 
  4.997371088715e-01 
  4.550971228698e-01 
  4.563439088267e-01 
  4.129507087819e-01 
  4.642852388212e-01 
  4.116886984294e-01 
  3.590921580376e-01 
  4.226390981281e-01 
  3.700425577363e-01 
  3.809929574350e-01 
  5.073634917636e-01 
  4.853318639413e-01 
  4.633002361189e-01 
  4.441949548416e-01 
  4.221633270193e-01 
  3.810264179197e-01 
  2.903191059371e-01 
  3.310762186699e-01 
  3.718333314028e-01 
  1.476254533945e-01 
  1.883825661273e-01 
  4.931800851841e-03 
  4.706718961487e-01 
  4.541952857760e-01 
  4.377186754032e-01 
  5.085476040854e-01 
  4.920709937126e-01 
  5.464233120221e-01 
  4.650225203779e-02 
  1.276425633883e-01 
  2.087828747388e-01 
  6.764021048325e-02 
  1.487805218337e-01 
  8.877816892870e-02 
  5.797426636860e-02 
  2.586512158620e-02 
 -6.244023196210e-03 
  1.154806645994e-01 
  8.337151981698e-02 
  1.729870628302e-01 
  5.286994968203e-02 
  2.375755348607e-02 
 -5.354842709889e-03 
  2.474673390430e-02 
 -4.365662291656e-03 
 -3.376481873423e-03 
  1.767554073815e-01 
  8.863374515774e-02 
  5.120829340103e-04 
  2.283993151240e-01 
  1.402776529002e-01 
  2.800432228665e-01 
  4.307230483155e-01 
  3.541482264389e-01 
  2.775734045624e-01 
  2.128605103943e-01 
  1.362856885178e-01 
 -5.002027526855e-03 
  4.450969954802e-01 
  5.011269763641e-01 
  5.571569572481e-01 
  4.460984304902e-01 
  5.021284113741e-01 
  4.470998655001e-01 
  4.369861728299e-01 
  4.444633553488e-01 
  4.519405378676e-01 
  3.608885766450e-01 
  3.683657591639e-01 
  2.847909804601e-01 
  2.610849029268e-03 
  8.899870686342e-02 
  1.753865646976e-01 
 -4.058940010988e-04 
  8.598196383305e-02 
 -3.422637031466e-03 
  3.361505712218e-01 
  2.560523585417e-01 
  1.759541458615e-01 
  3.115897219852e-01 
  2.314915093051e-01 
  2.870288727487e-01 
 -1.591921992656e-03 
  4.605017831138e-03 
  1.080195765493e-02 
  2.164553853809e-01 
  2.226523252047e-01 
  4.345026927545e-01 
  4.670711700781e-01 
  2.389289638253e-01 
  1.078675757247e-02 
  4.660930800776e-01 
  2.379508738248e-01 
  4.651149900771e-01 
  2.750964754461e-01 
  1.996868928000e-01 
  1.242773101538e-01 
  4.033351070416e-01 
  3.279255243955e-01 
  5.315737386371e-01 
  2.244093850282e-01 
  1.138186303158e-01 
  3.227875603396e-03 
  2.000416868820e-01 
  8.945093216957e-02 
  1.756739887357e-01 
  6.250316082819e-01 
  3.149908762876e-01 
  4.950144293222e-03 
  3.207412372337e-01 
  1.070050523940e-02 
  1.645086618558e-02 
  6.056410057703e-01 
  3.025530290044e-01 
 -5.349477614383e-04 
  3.109064171733e-01 
  7.818440407428e-03 
  1.617182857629e-02 
  4.157468164019e-01 
  2.124816073095e-01 
  9.216398217096e-03 
  3.839779035939e-01 
  1.807126945015e-01 
  3.522089907859e-01 
  4.279565152042e-01 
  2.160427342617e-01 
  4.128953319265e-03 
  5.082114772481e-01 
  2.962976963056e-01 
  5.884664392920e-01 
  4.837026870469e-01 
  4.563395320193e-01 
  4.289763769917e-01 
  4.439604700330e-01 
  4.165973150054e-01 
  4.042182530192e-01 
  6.681212453021e-01 
  3.375010499630e-01 
  6.880854623928e-03 
  3.345224320316e-01 
  3.902236692514e-03 
  9.236187610998e-04 
  5.528688240446e-01 
  5.734655860108e-01 
  5.940623479770e-01 
  6.041536310338e-01 
  6.247503930000e-01 
  6.554384380231e-01 
  5.856508964983e-01 
  5.726513663604e-01 
  5.596518362226e-01 
  5.112853133445e-01 
  4.982857832066e-01 
  4.369197301906e-01 
  5.207455062782e-01 
  4.493360511994e-01 
  3.779265961205e-01 
  5.110064284285e-01 
  4.395969733497e-01 
  5.012673505789e-01 
  3.819129553332e-01 
  3.991856439853e-01 
  4.164583326375e-01 
  4.409626422299e-01 
  4.582353308820e-01 
  5.000123291266e-01 
  5.088785880030e-01 
  5.033708003844e-01 
  4.978630127659e-01 
  5.816697554142e-01 
  5.761619677956e-01 
  6.544609228254e-01 
  6.549886608217e-01 
  6.934924838131e-01 
  7.319963068045e-01 
  5.808575317366e-01 
  6.193613547280e-01 
  5.067264026514e-01 
  6.556986347201e-01 
  6.291763899485e-01 
  6.026541451769e-01 
  6.613882292571e-01 
  6.348659844856e-01 
  6.670778237942e-01 
  5.480007418654e-01 
  5.988873067433e-01 
  6.497738716212e-01 
  5.232664416741e-01 
  5.741530065520e-01 
  4.985321414828e-01 
  6.623532002892e-01 
  6.461549807712e-01 
  6.299567612532e-01 
  7.020259924790e-01 
  6.858277729610e-01 
  7.416987846688e-01 
  6.659190916544e-01 
  6.425750747502e-01 
  6.192310578459e-01 
  3.455251450613e-01 
  3.221811281570e-01 
  2.513119846810e-02 
  5.372312912865e-01 
  6.369423836707e-01 
  7.366534760548e-01 
  6.529680034479e-01 
  7.526790958321e-01 
  7.687047156093e-01 
  7.363054399444e-01 
  6.344581846990e-01 
  5.326109294536e-01 
  6.196338571717e-01 
  5.177866019263e-01 
  5.029622743991e-01 
  4.405476254233e-01 
  4.823628155390e-01 
  5.241780056547e-01 
  5.090283305360e-01 
  5.508435206517e-01 
  5.775090356487e-01 
  5.230277419446e-01 
  4.814159237722e-01 
  4.398041055997e-01 
  4.482440059516e-01 
  4.066321877792e-01 
  3.734602699587e-01 
  7.523136091052e-01 
  7.475382287869e-01 
  7.427628484685e-01 
  6.887061338624e-01 
  6.839307535440e-01 
  6.250986586195e-01 
  6.651322051068e-01 
  6.980679872223e-01 
  7.310037693378e-01 
  6.598053575874e-01 
  6.927411397029e-01 
  6.544785100680e-01 
  1.102305318478e-02 
  3.202417432519e-01 
  6.294604333190e-01 
  3.371062617916e-01 
  6.463249518587e-01 
  6.631894703984e-01 