# vtk DataFile Version 2
NuDG++ 2D simulation
ASCII
DATASET UNSTRUCTURED_GRID

POINTS 7854 double
 -1.656250060000e-01  -2.000000030000e-01  0.0
 -1.725000054000e-01  -1.908888817000e-01  0.0
 -1.793750048000e-01  -1.817777604000e-01  0.0
 -1.862500042000e-01  -1.726666391000e-01  0.0
 -1.931250036000e-01  -1.635555178000e-01  0.0
 -2.000000030000e-01  -1.544443965000e-01  0.0
 -1.725000054000e-01  -2.000000030000e-01  0.0
 -1.793750048000e-01  -1.908888817000e-01  0.0
 -1.862500042000e-01  -1.817777604000e-01  0.0
 -1.931250036000e-01  -1.726666391000e-01  0.0
 -2.000000030000e-01  -1.635555178000e-01  0.0
 -1.793750048000e-01  -2.000000030000e-01  0.0
 -1.862500042000e-01  -1.908888817000e-01  0.0
 -1.931250036000e-01  -1.817777604000e-01  0.0
 -2.000000030000e-01  -1.726666391000e-01  0.0
 -1.862500042000e-01  -2.000000030000e-01  0.0
 -1.931250036000e-01  -1.908888817000e-01  0.0
 -2.000000030000e-01  -1.817777604000e-01  0.0
 -1.931250036000e-01  -2.000000030000e-01  0.0
 -2.000000030000e-01  -1.908888817000e-01  0.0
 -2.000000030000e-01  -2.000000030000e-01  0.0
 -6.428571790000e-02  -1.700000018000e-01  0.0
 -7.080357372400e-02  -1.760000020400e-01  0.0
 -7.732142954800e-02  -1.820000022800e-01  0.0
 -8.383928537200e-02  -1.880000025200e-01  0.0
 -9.035714119600e-02  -1.940000027600e-01  0.0
 -9.687499702000e-02  -2.000000030000e-01  0.0
 -6.392857432000e-02  -1.760000020400e-01  0.0
 -7.044643014400e-02  -1.820000022800e-01  0.0
 -7.696428596800e-02  -1.880000025200e-01  0.0
 -8.348214179200e-02  -1.940000027600e-01  0.0
 -8.999999761600e-02  -2.000000030000e-01  0.0
 -6.357143074000e-02  -1.820000022800e-01  0.0
 -7.008928656400e-02  -1.880000025200e-01  0.0
 -7.660714238800e-02  -1.940000027600e-01  0.0
 -8.312499821200e-02  -2.000000030000e-01  0.0
 -6.321428716000e-02  -1.880000025200e-01  0.0
 -6.973214298400e-02  -1.940000027600e-01  0.0
 -7.624999880800e-02  -2.000000030000e-01  0.0
 -6.285714358000e-02  -1.940000027600e-01  0.0
 -6.937499940400e-02  -2.000000030000e-01  0.0
 -6.250000000000e-02  -2.000000030000e-01  0.0
 -2.000000030000e-01  -1.544443965000e-01  0.0
 -1.900000036000e-01  -1.478412374800e-01  0.0
 -1.800000042000e-01  -1.412380784600e-01  0.0
 -1.700000048000e-01  -1.346349194400e-01  0.0
 -1.600000054000e-01  -1.280317604200e-01  0.0
 -1.500000060000e-01  -1.214286014000e-01  0.0
 -2.000000030000e-01  -1.453332975600e-01  0.0
 -1.900000036000e-01  -1.387301385400e-01  0.0
 -1.800000042000e-01  -1.321269795200e-01  0.0
 -1.700000048000e-01  -1.255238205000e-01  0.0
 -1.600000054000e-01  -1.189206614800e-01  0.0
 -2.000000030000e-01  -1.362221986200e-01  0.0
 -1.900000036000e-01  -1.296190396000e-01  0.0
 -1.800000042000e-01  -1.230158805800e-01  0.0
 -1.700000048000e-01  -1.164127215600e-01  0.0
 -2.000000030000e-01  -1.271110996800e-01  0.0
 -1.900000036000e-01  -1.205079406600e-01  0.0
 -1.800000042000e-01  -1.139047816400e-01  0.0
 -2.000000030000e-01  -1.180000007400e-01  0.0
 -1.900000036000e-01  -1.113968417200e-01  0.0
 -2.000000030000e-01  -1.088889018000e-01  0.0
 -1.500000060000e-01  -1.214286014000e-01  0.0
 -1.600000054000e-01  -1.280317604200e-01  0.0
 -1.700000048000e-01  -1.346349194400e-01  0.0
 -1.800000042000e-01  -1.412380784600e-01  0.0
 -1.900000036000e-01  -1.478412374800e-01  0.0
 -2.000000030000e-01  -1.544443965000e-01  0.0
 -1.500000060000e-01  -1.311428814800e-01  0.0
 -1.600000054000e-01  -1.377460405000e-01  0.0
 -1.700000048000e-01  -1.443491995200e-01  0.0
 -1.800000042000e-01  -1.509523585400e-01  0.0
 -1.900000036000e-01  -1.575555175600e-01  0.0
 -1.500000060000e-01  -1.408571615600e-01  0.0
 -1.600000054000e-01  -1.474603205800e-01  0.0
 -1.700000048000e-01  -1.540634796000e-01  0.0
 -1.800000042000e-01  -1.606666386200e-01  0.0
 -1.500000060000e-01  -1.505714416400e-01  0.0
 -1.600000054000e-01  -1.571746006600e-01  0.0
 -1.700000048000e-01  -1.637777596800e-01  0.0
 -1.500000060000e-01  -1.602857217200e-01  0.0
 -1.600000054000e-01  -1.668888807400e-01  0.0
 -1.500000060000e-01  -1.700000018000e-01  0.0
 -1.500000060000e-01  -7.285714149000e-02  0.0
 -1.600000054000e-01  -8.006349355200e-02  0.0
 -1.700000048000e-01  -8.726984561400e-02  0.0
 -1.800000042000e-01  -9.447619767600e-02  0.0
 -1.900000036000e-01  -1.016825497380e-01  0.0
 -2.000000030000e-01  -1.088889018000e-01  0.0
 -1.500000060000e-01  -8.257143347200e-02  0.0
 -1.600000054000e-01  -8.977778553400e-02  0.0
 -1.700000048000e-01  -9.698413759600e-02  0.0
 -1.800000042000e-01  -1.041904896580e-01  0.0
 -1.900000036000e-01  -1.113968417200e-01  0.0
 -1.500000060000e-01  -9.228572545400e-02  0.0
 -1.600000054000e-01  -9.949207751600e-02  0.0
 -1.700000048000e-01  -1.066984295780e-01  0.0
 -1.800000042000e-01  -1.139047816400e-01  0.0
 -1.500000060000e-01  -1.020000174360e-01  0.0
 -1.600000054000e-01  -1.092063694980e-01  0.0
 -1.700000048000e-01  -1.164127215600e-01  0.0
 -1.500000060000e-01  -1.117143094180e-01  0.0
 -1.600000054000e-01  -1.189206614800e-01  0.0
 -1.500000060000e-01  -1.214286014000e-01  0.0
  1.832975030000e+00  -4.625000060000e-02  0.0
  1.841380024000e+00  -7.700000108000e-02  0.0
  1.849785018000e+00  -1.077500015600e-01  0.0
  1.858190012000e+00  -1.385000020400e-01  0.0
  1.866595006000e+00  -1.692500025200e-01  0.0
  1.875000000000e+00  -2.000000030000e-01  0.0
  1.866380024000e+00  -5.649999976400e-02  0.0
  1.874785018000e+00  -8.725000024400e-02  0.0
  1.883190012000e+00  -1.180000007240e-01  0.0
  1.891595006000e+00  -1.487500012040e-01  0.0
  1.900000000000e+00  -1.795000016840e-01  0.0
  1.899785018000e+00  -6.674999892800e-02  0.0
  1.908190012000e+00  -9.749999940800e-02  0.0
  1.916595006000e+00  -1.282499998880e-01  0.0
  1.925000000000e+00  -1.590000003680e-01  0.0
  1.933190012000e+00  -7.699999809200e-02  0.0
  1.941595006000e+00  -1.077499985720e-01  0.0
  1.950000000000e+00  -1.384999990520e-01  0.0
  1.966595006000e+00  -8.724999725600e-02  0.0
  1.975000000000e+00  -1.179999977360e-01  0.0
  2.000000000000e+00  -9.749999642000e-02  0.0
 -1.500000060000e-01  -1.700000018000e-01  0.0
 -1.444000050800e-01  -1.630000025200e-01  0.0
 -1.388000041600e-01  -1.560000032400e-01  0.0
 -1.332000032400e-01  -1.490000039600e-01  0.0
 -1.276000023200e-01  -1.420000046800e-01  0.0
 -1.220000014000e-01  -1.350000054000e-01  0.0
 -1.500000060000e-01  -1.602857217200e-01  0.0
 -1.444000050800e-01  -1.532857224400e-01  0.0
 -1.388000041600e-01  -1.462857231600e-01  0.0
 -1.332000032400e-01  -1.392857238800e-01  0.0
 -1.276000023200e-01  -1.322857246000e-01  0.0
 -1.500000060000e-01  -1.505714416400e-01  0.0
 -1.444000050800e-01  -1.435714423600e-01  0.0
 -1.388000041600e-01  -1.365714430800e-01  0.0
 -1.332000032400e-01  -1.295714438000e-01  0.0
 -1.500000060000e-01  -1.408571615600e-01  0.0
 -1.444000050800e-01  -1.338571622800e-01  0.0
 -1.388000041600e-01  -1.268571630000e-01  0.0
 -1.500000060000e-01  -1.311428814800e-01  0.0
 -1.444000050800e-01  -1.241428822000e-01  0.0
 -1.500000060000e-01  -1.214286014000e-01  0.0
  2.849999964000e-01  -2.333333530000e-02  0.0
  2.844999968800e-01  -4.666666836000e-02  0.0
  2.839999973600e-01  -7.000000142000e-02  0.0
  2.834999978400e-01  -9.333333448000e-02  0.0
  2.829999983200e-01  -1.166666675400e-01  0.0
  2.824999988000e-01  -1.400000006000e-01  0.0
  2.979999959200e-01  -3.266666830000e-02  0.0
  2.974999964000e-01  -5.600000136000e-02  0.0
  2.969999968800e-01  -7.933333442000e-02  0.0
  2.964999973600e-01  -1.026666674800e-01  0.0
  2.959999978400e-01  -1.260000005400e-01  0.0
  3.109999954400e-01  -4.200000130000e-02  0.0
  3.104999959200e-01  -6.533333436000e-02  0.0
  3.099999964000e-01  -8.866666742000e-02  0.0
  3.094999968800e-01  -1.120000004800e-01  0.0
  3.239999949600e-01  -5.133333430000e-02  0.0
  3.234999954400e-01  -7.466666736000e-02  0.0
  3.229999959200e-01  -9.800000042000e-02  0.0
  3.369999944800e-01  -6.066666730000e-02  0.0
  3.364999949600e-01  -8.400000036000e-02  0.0
  3.499999940000e-01  -7.000000030000e-02  0.0
 -1.071429029000e-01  -1.700000018000e-01  0.0
 -9.857146590000e-02  -1.700000018000e-01  0.0
 -9.000002890000e-02  -1.700000018000e-01  0.0
 -8.142859190000e-02  -1.700000018000e-01  0.0
 -7.285715490000e-02  -1.700000018000e-01  0.0
 -6.428571790000e-02  -1.700000018000e-01  0.0
 -1.037143230360e-01  -1.630000025200e-01  0.0
 -9.514288603600e-02  -1.630000025200e-01  0.0
 -8.657144903600e-02  -1.630000025200e-01  0.0
 -7.800001203600e-02  -1.630000025200e-01  0.0
 -6.942857503600e-02  -1.630000025200e-01  0.0
 -1.002857431720e-01  -1.560000032400e-01  0.0
 -9.171430617200e-02  -1.560000032400e-01  0.0
 -8.314286917200e-02  -1.560000032400e-01  0.0
 -7.457143217200e-02  -1.560000032400e-01  0.0
 -9.685716330800e-02  -1.490000039600e-01  0.0
 -8.828572630800e-02  -1.490000039600e-01  0.0
 -7.971428930800e-02  -1.490000039600e-01  0.0
 -9.342858344400e-02  -1.420000046800e-01  0.0
 -8.485714644400e-02  -1.420000046800e-01  0.0
 -9.000000358000e-02  -1.350000054000e-01  0.0
 -1.312499940000e-01  -2.000000030000e-01  0.0
 -1.264285757800e-01  -1.940000027600e-01  0.0
 -1.216071575600e-01  -1.880000025200e-01  0.0
 -1.167857393400e-01  -1.820000022800e-01  0.0
 -1.119643211200e-01  -1.760000020400e-01  0.0
 -1.071429029000e-01  -1.700000018000e-01  0.0
 -1.349999964000e-01  -1.940000027600e-01  0.0
 -1.301785781800e-01  -1.880000025200e-01  0.0
 -1.253571599600e-01  -1.820000022800e-01  0.0
 -1.205357417400e-01  -1.760000020400e-01  0.0
 -1.157143235200e-01  -1.700000018000e-01  0.0
 -1.387499988000e-01  -1.880000025200e-01  0.0
 -1.339285805800e-01  -1.820000022800e-01  0.0
 -1.291071623600e-01  -1.760000020400e-01  0.0
 -1.242857441400e-01  -1.700000018000e-01  0.0
 -1.425000012000e-01  -1.820000022800e-01  0.0
 -1.376785829800e-01  -1.760000020400e-01  0.0
 -1.328571647600e-01  -1.700000018000e-01  0.0
 -1.462500036000e-01  -1.760000020400e-01  0.0
 -1.414285853800e-01  -1.700000018000e-01  0.0
 -1.500000060000e-01  -1.700000018000e-01  0.0
[...]
POINT_DATA 7854
SCALARS field1 double 1
LOOKUP_TABLE default
  1.172915826251e-05 
  2.365601543204e-05 
  1.956885551501e-05 
  2.170342684011e-05 
  2.125792524618e-05 
  2.803169397826e-05 
  8.924359044014e-06 
  2.079400785668e-05 
  1.660688792937e-05 
  1.880173107785e-05 
  1.958415009548e-05 
  7.565952072343e-06 
  1.656427104971e-05 
  1.349133131579e-05 
  1.591432141600e-05 
  5.919866204226e-06 
  1.148119833200e-05 
  1.047959893424e-05 
  3.607949340416e-06 
  5.263815220625e-06 
 -2.572306850589e-07 
  6.179526703516e-05 
  4.119328483265e-05 
  4.454699621039e-05 
  3.930833319651e-05 
  4.344568483726e-05 
  1.225468159083e-05 
  4.015819035589e-05 
  4.589527178517e-05 
  3.945690955646e-05 
  4.554186972153e-05 
  9.007437931552e-06 
  4.642303725156e-05 
  4.000278660588e-05 
  4.616314311717e-05 
  9.395733067730e-06 
  4.036612598702e-05 
  4.688882629286e-05 
  9.467958082431e-06 
  4.738555728768e-05 
  9.575733238556e-06 
  9.576263444043e-06 
  2.477443885003e-05 
  2.911741834819e-05 
  3.270893489141e-05 
  3.558108236584e-05 
  3.787142683201e-05 
  3.966393616826e-05 
  2.890025128109e-05 
  3.254807443716e-05 
  3.550343553191e-05 
  3.786879695210e-05 
  3.972971948689e-05 
  3.286092459768e-05 
  3.580093679220e-05 
  3.817548883885e-05 
  4.004832722782e-05 
  3.656691535510e-05 
  3.887468621589e-05 
  4.070790748887e-05 
  4.002397106317e-05 
  4.175071885329e-05 
  4.323759984866e-05 
  3.956829389113e-05 
  3.786416777114e-05 
  3.555695240424e-05 
  3.272667677970e-05 
  2.908004373329e-05 
  2.498793068724e-05 
  3.804497831618e-05 
  3.583116160444e-05 
  3.310942817983e-05 
  2.963071267603e-05 
  2.553875075932e-05 
  3.638234076132e-05 
  3.382804384846e-05 
  3.060834568211e-05 
  2.670760947337e-05 
  3.479107742109e-05 
  3.183437253286e-05 
  2.831134532377e-05 
  3.314142935377e-05 
  3.016884621026e-05 
  3.271120755522e-05 
  4.629361412468e-05 
  4.636822500506e-05 
  4.612906581422e-05 
  4.554898036543e-05 
  4.459719294903e-05 
  4.323578307632e-05 
  4.526398180844e-05 
  4.494323160260e-05 
  4.427795015526e-05 
  4.322997590761e-05 
  4.175285667521e-05 
  4.407472123162e-05 
  4.335094147693e-05 
  4.224695954775e-05 
  4.070858189439e-05 
  4.273538509125e-05 
  4.160668711752e-05 
  4.005142119245e-05 
  4.126684665679e-05 
  3.973027146955e-05 
  3.968394807197e-05 
  4.186148039069e-05 
  4.166521869144e-05 
  4.167154195191e-05 
  4.165743439534e-05 
  4.171122891993e-05 
  4.092701601656e-05 
  4.171174661876e-05 
  4.169784450762e-05 
  4.168556865038e-05 
  4.167369325970e-05 
  4.172840450116e-05 
  4.172831312431e-05 
  4.170146240421e-05 
  4.168934972497e-05 
  4.167190485537e-05 
  4.173200043737e-05 
  4.170639306353e-05 
  4.169463684129e-05 
  4.169882291815e-05 
  4.165457223170e-05 
  4.218245756216e-05 
  3.253005295336e-05 
  3.383912220841e-05 
  3.571294560995e-05 
  3.733013783345e-05 
  3.876718019142e-05 
  3.999713560592e-05 
  3.317319380054e-05 
  3.521180047380e-05 
  3.695632077559e-05 
  3.848676586367e-05 
  3.982021735728e-05 
  3.476692574144e-05 
  3.662680431514e-05 
  3.824638017298e-05 
  3.963730983678e-05 
  3.639163092536e-05 
  3.809850229358e-05 
  3.955233660627e-05 
  3.804214283016e-05 
  3.955914241654e-05 
  3.964995709302e-05 
  4.138507927223e-05 
  4.144212175899e-05 
  4.153172985872e-05 
  4.163825454229e-05 
  4.173833918298e-05 
  4.193846355272e-05 
  4.145281693002e-05 
  4.151195620031e-05 
  4.159055790529e-05 
  4.167981999377e-05 
  4.175724797991e-05 
  4.151091644072e-05 
  4.156577827343e-05 
  4.163446725906e-05 
  4.170391926332e-05 
  4.155681135351e-05 
  4.160758882246e-05 
  4.166339322236e-05 
  4.159499913316e-05 
  4.163567777871e-05 
  4.161582579598e-05 
  4.068751059316e-05 
  4.074340594320e-05 
  4.172509591648e-05 
  4.267158236648e-05 
  4.370146964623e-05 
  4.676881219845e-05 
  3.992739583437e-05 
  4.108819444452e-05 
  4.210904776185e-05 
  4.300476922697e-05 
  4.361522557064e-05 
  4.090927359709e-05 
  4.187544266894e-05 
  4.282214290315e-05 
  4.377054413727e-05 
  4.158998723114e-05 
  4.252513645410e-05 
  4.342809258183e-05 
  4.235252166241e-05 
  4.326240086565e-05 
  4.282802471764e-05 
  1.993682460328e-05 
  3.595118433710e-05 
  3.566558560506e-05 
  3.746943595944e-05 
  3.761499710098e-05 
  4.327744374617e-05 
  3.413048812018e-05 
  3.433696513141e-05 
  3.576105946218e-05 
  3.727889953207e-05 
  3.847501285019e-05 
  3.224360204967e-05 
  3.410270001253e-05 
  3.571938315115e-05 
  3.719560821093e-05 
  3.247831056642e-05 
  3.412004601024e-05 
  3.571838828729e-05 
  3.143662575713e-05 
  3.412904721305e-05 
  3.448732293072e-05 
  4.004562844371e-05 
  4.067728351498e-05 
  4.128916831808e-05 
  4.190403596516e-05 
  4.252538319514e-05 
  4.312240524613e-05 
  4.086379654591e-05 
  4.139289697072e-05 
  4.193818369404e-05 
  4.250054163772e-05 
  4.308212074988e-05 
  4.158389762112e-05 
  4.203750223979e-05 
  4.251955814310e-05 
  4.303139789237e-05 
  4.224331992810e-05 
  4.262370314275e-05 
  4.304586927405e-05 
  4.281407599325e-05 
  4.312408094606e-05 
  4.330114860972e-05 
  4.303816036555e-05 
  4.251668137679e-05 
  4.188254796748e-05 
  4.127424799941e-05 
  4.066386126163e-05 
  4.001829062015e-05 
  4.237363955215e-05 
  4.176668566584e-05 
  4.108762781782e-05 
  4.042100543751e-05 
  3.971229627197e-05 
  4.163952138015e-05 
  4.097298874873e-05 
  4.024300842930e-05 
  3.948584994804e-05 
  4.088218495520e-05 
  4.014583762579e-05 
  3.933537635272e-05 
  3.999780662310e-05 
  3.918946389425e-05 
  4.032864963898e-05 
  4.579816870327e-05 
  4.508727361003e-05 
  4.451269636758e-05 
  4.403903535558e-05 
  4.363890423724e-05 
  4.329330830718e-05 
  4.550002067368e-05 
  4.478818999765e-05 
  4.417063951786e-05 
  4.362298327772e-05 
  4.312463225339e-05 
  4.505303529765e-05 
  4.432881804443e-05 
  4.366534644797e-05 
  4.304454328421e-05 
  4.449382923859e-05 
  4.374845940966e-05 
  4.303296340999e-05 
  4.385927955795e-05 
  4.307916283126e-05 
  4.314281703578e-05 
  4.004402289923e-05 
  4.086342897115e-05 
  4.158388242893e-05 
  4.224278085723e-05 
  4.281400800092e-05 
  4.329923562845e-05 
  3.982579171228e-05 
  4.068638925955e-05 
  4.146880772160e-05 
  4.217828826473e-05 
  4.279238408006e-05 
  3.965139971977e-05 
  4.059054688875e-05 
  4.143915146898e-05 
  4.220506860356e-05 
  3.956281127740e-05 
  4.058392454852e-05 
  4.150342615287e-05 
  3.956847905956e-05 
  4.067696833682e-05 
  3.967493951995e-05 
  4.580563183592e-05 
  4.549878620071e-05 
  4.505416304620e-05 
  4.449272243347e-05 
  4.386010565857e-05 
  4.313567942659e-05 
  4.631228260414e-05 
  4.589091376037e-05 
  4.535474077994e-05 
  4.474972339895e-05 
  4.407027806636e-05 
  4.681600404323e-05 
  4.626641099344e-05 
  4.565935669062e-05 
  4.498343556735e-05 
  4.727431068847e-05 
  4.662424893947e-05 
  4.592327295493e-05 
  4.768641071562e-05 
  4.691794396150e-05 
  4.801555667654e-05 
  4.103449528869e-05 
  3.908127278448e-05 
  3.939230217448e-05 
  3.945056635820e-05 
  3.970525204379e-05 
  3.982205328002e-05 
  3.839075831074e-05 
  3.805081658455e-05 
  3.822821896785e-05 
  3.839617278631e-05 
  3.875294964876e-05 
  3.695271903617e-05 
  3.679450367372e-05 
  3.701865992789e-05 
  3.729201840479e-05 
  3.550717241901e-05 
  3.537386284703e-05 
  3.575252535723e-05 
  3.398268825529e-05 
  3.375645604748e-05 
  3.304226731145e-05 
  1.143144932244e-05 
  1.051531040542e-05 
  1.056153318724e-05 
  1.063529013476e-05 
  1.020553267575e-05 
  1.361496374737e-05 
  5.088363317592e-05 
  5.166259981011e-05 
  5.145406679356e-05 
  5.124214005965e-05 
  4.999048122679e-05 
  4.397954113606e-05 
  4.397275825858e-05 
  4.381687635980e-05 
  4.395552738621e-05 
  5.028529951526e-05 
  5.042131785594e-05 
  4.976540315986e-05 
  4.415407065361e-05 
  4.468793200294e-05 
  6.832154450200e-05 
  4.629282929851e-05 
  4.526366057264e-05 
  4.407441901471e-05 
  4.273571351983e-05 
  4.126679212858e-05 
  3.968503941767e-05 
  4.523080127342e-05 
  4.429853934121e-05 
  4.321625396083e-05 
  4.199996682119e-05 
  4.067523534164e-05 
  4.440668940637e-05 
  4.357280688346e-05 
  4.259767287371e-05 
  4.150426149802e-05 
  4.381684800804e-05 
  4.307618000373e-05 
  4.220394328318e-05 
  4.345046881293e-05 
  4.279271281312e-05 
  4.329288894102e-05 
  5.558976472360e-05 
  5.307731464724e-05 
  5.091606544542e-05 
  4.907944925786e-05 
  4.754478943590e-05 
  4.629251576367e-05 
  5.474227466529e-05 
  5.239903371146e-05 
  5.036847305732e-05 
  4.862803215229e-05 
  4.715766463218e-05 
  5.365967457522e-05 
  5.146136175021e-05 
  4.953670425610e-05 
  4.786591944017e-05 
  5.236330788371e-05 
  5.027935575108e-05 
  4.842844836817e-05 
  5.086790505710e-05 
  4.886068134187e-05 
  4.918175514549e-05 
  5.558963462082e-05 
  5.361325596808e-05 
  5.138974864250e-05 
  4.891882431143e-05 
  4.620071475137e-05 
  4.323618249499e-05 
  5.307728656666e-05 
  5.128667875686e-05 
  4.927539488814e-05 
  4.704467945769e-05 
  4.459707417191e-05 
  5.091603000712e-05 
  4.932185268468e-05 
  4.753174114474e-05 
  4.554898490838e-05 
  4.907953308309e-05 
  4.769065446813e-05 
  4.612882160852e-05 
  4.754475204896e-05 
  4.636823713442e-05 
  4.629278735792e-05 
  5.558976374795e-05 
  5.474228382698e-05 
  5.365982630099e-05 
  5.236330857456e-05 
  5.086769801315e-05 
  4.918197983486e-05 
  5.731894778784e-05 
  5.607632128563e-05 
  5.464323801521e-05 
  5.304197341792e-05 
  5.128978050447e-05 
  5.880134281707e-05 
  5.719067455761e-05 
  5.543734993911e-05 
  5.356557732154e-05 
  6.003672500173e-05 
  5.808712682867e-05 
  5.604587602339e-05 
  6.102503618011e-05 
  5.876728182725e-05 
  6.176625187551e-05 
  4.918195760468e-05 
  4.886069670811e-05 
  4.842827009194e-05 
  4.786538739497e-05 
  4.715688701504e-05 
  4.629285881868e-05 
  4.743562606009e-05 
  4.724899409083e-05 
  4.697838967368e-05 
  4.659471796266e-05 
  4.607334039165e-05 
  4.578973649420e-05 
  4.577493361519e-05 
  4.569572926279e-05 
  4.551203362686e-05 
  4.423093527705e-05 
  4.443569063051e-05 
  4.458730179643e-05 
  4.275704799598e-05 
  4.324120679843e-05 
  4.138021119880e-05 
  4.060801616267e-05 
  4.257273870546e-05 
  4.439486527018e-05 
  4.609107644779e-05 
  4.768083866108e-05 
  4.918171827480e-05 
  4.046033768446e-05 
  4.247720240831e-05 
  4.428937148766e-05 
  4.593108237896e-05 
  4.743573968174e-05 
  4.047643662550e-05 
  4.248357438651e-05 
  4.423750709302e-05 
  4.578948745993e-05 
  4.064962694528e-05 
  4.258314775314e-05 
  4.423086836305e-05 
  4.096118179655e-05 
  4.275722412278e-05 
  4.138077680625e-05 
  4.918217730305e-05 
  4.941351213380e-05 
  4.956941565915e-05 
  4.965744342214e-05 
  4.967766142131e-05 
  4.962276267103e-05 
  5.128978972905e-05 
  5.161284301340e-05 
  5.181407234513e-05 
  5.189769592429e-05 
  5.186196607633e-05 
  5.356559924231e-05 
  5.395933943915e-05 
  5.418829565653e-05 
  5.425456418301e-05 
  5.604584658717e-05 
  5.649379674625e-05 
  5.673714751331e-05 
  5.876721334866e-05 
  5.925617305158e-05 
  6.176630060558e-05 
  4.629258927629e-05 
  4.548054761068e-05 
  4.477277371647e-05 
  4.417167582945e-05 
  4.370270944139e-05 
  4.342303459585e-05 
  4.607367701062e-05 
  4.513136376065e-05 
  4.428090924403e-05 
  4.353100993590e-05 
  4.291869255551e-05 
  4.551160730723e-05 
  4.441576573139e-05 
  4.338201615384e-05 
  4.242727114992e-05 
  4.458705049920e-05 
  4.327821188079e-05 
  4.198388698449e-05 
  4.324143578520e-05 
  4.162379302294e-05 
  4.138081396714e-05 
  4.326099375398e-05 
  4.177891543511e-05 
  4.182904353497e-05 
  4.180411265152e-05 
  4.177340635807e-05 
  4.173134206680e-05 
  4.163588071393e-05 
  4.179376196469e-05 
  4.175272643327e-05 
  4.172377794550e-05 
  4.166945580942e-05 
  4.179254907116e-05 
  4.173310025898e-05 
  4.170138411837e-05 
  4.164277019399e-05 
  4.168731150532e-05 
  4.167923770993e-05 
  4.161631995399e-05 
  4.185223500632e-05 
  4.174298388382e-05 
  3.968866571028e-05 
  3.920491098737e-05 
  4.064259438546e-05 
  4.164389442241e-05 
  4.241968627307e-05 
  4.299268629753e-05 
  4.344107663194e-05 
  4.060784919346e-05 
  4.168614645790e-05 
  4.244206280969e-05 
  4.302173317962e-05 
  4.343142455011e-05 
  4.208885174430e-05 
  4.281427596001e-05 
  4.330035624002e-05 
  4.366639655046e-05 
  4.362045395166e-05 
  4.398380234217e-05 
  4.419141947826e-05 
  4.514584683926e-05 
  4.514969541388e-05 
  4.661858211356e-05 
  4.342228681671e-05 
  4.370285581253e-05 
  4.417145683670e-05 
  4.477281677210e-05 
  4.548068612728e-05 
  4.629289494716e-05 
  4.384675816500e-05 
  4.396530168964e-05 
  4.426327291920e-05 
  4.469259832038e-05 
  4.523062973800e-05 
  4.401410729663e-05 
  4.399638255253e-05 
  4.414125442080e-05 
  4.440630696513e-05 
  4.395982154008e-05 
  4.381952562689e-05 
  4.381649117920e-05 
  4.371194251970e-05 
  4.345039717732e-05 
  4.329133804630e-05 
  2.290911895566e-05 
  2.559807894641e-05 
  2.795797983380e-05 
  2.997570377030e-05 
  3.174558611675e-05 
  3.327022072633e-05 
  2.419136818257e-05 
  2.667498097196e-05 
  2.886729339658e-05 
  3.074337519381e-05 
  3.239895102590e-05 
  2.592450775675e-05 
  2.811843514864e-05 
  3.007699791673e-05 
  3.176244964580e-05 
  2.794489732945e-05 
  2.980553353210e-05 
  3.150668395466e-05 
  3.029468684112e-05 
  3.154422238875e-05 
  3.527478038587e-05 
  3.332279901433e-05 
  3.551528236750e-05 
  3.732137796484e-05 
  3.886679551724e-05 
  4.019958645045e-05 
  4.139155667220e-05 
  3.410730787232e-05 
  3.612363775761e-05 
  3.777787936124e-05 
  3.919832112354e-05 
  4.042044703114e-05 
  3.514457528166e-05 
  3.691711804963e-05 
  3.837412353118e-05 
  3.963471588657e-05 
  3.638351630212e-05 
  3.786517011649e-05 
  3.908952140032e-05 
  3.777556649704e-05 
  3.892854360074e-05 
  3.922373692258e-05 
  3.917027194807e-05 
  3.834946062034e-05 
  3.733554071256e-05 
  3.613035454751e-05 
  3.444510761174e-05 
  3.505474729337e-05 
  3.776255841692e-05 
  3.662692229925e-05 
  3.530933249395e-05 
  3.371061369956e-05 
  3.158014920486e-05 
  3.636456722612e-05 
  3.499813896379e-05 
  3.341217548294e-05 
  3.148592721494e-05 
  3.512967837930e-05 
  3.356980350962e-05 
  3.177067938416e-05 
  3.409172708988e-05 
  3.239958193175e-05 
  3.331118345412e-05 
  3.333097502579e-05 
  3.434744641202e-05 
  3.574034823288e-05 
  3.732743683644e-05 
  3.897527491801e-05 
  4.060831651052e-05 
  3.551406885341e-05 
  3.638587329120e-05 
  3.759484460010e-05 
  3.898519727273e-05 
  4.046145390025e-05 
  3.732263321971e-05 
  3.812482878524e-05 
  3.921338111825e-05 
  4.047652060242e-05 
  3.886486608214e-05 
  3.963351023969e-05 
  4.064912091859e-05 
  4.020102819123e-05 
  4.096133638805e-05 
  4.138287620191e-05 
  4.579690350671e-05 
  4.614382587296e-05 
  4.642377308956e-05 
  4.662590268846e-05 
  4.672368619066e-05 
  4.662393884576e-05 
  4.535286384559e-05 
  4.552241687821e-05 
  4.556819192651e-05 
  4.545939616385e-05 
  4.514844951277e-05 
  4.487094924555e-05 
  4.483967782799e-05 
  4.463190689099e-05 
  4.419315793112e-05 
  4.437023942123e-05 
  4.413002106670e-05 
  4.366412529487e-05 
  4.387771416012e-05 
  4.343307136064e-05 
  4.343005111253e-05 
  3.923639415654e-05 
  3.892663523087e-05 
  3.909118920939e-05 
  3.963320059853e-05 
  4.042161939826e-05 
  4.138424720814e-05 
  4.063842441075e-05 
  4.033454620430e-05 
  4.047452643027e-05 
  4.093184075448e-05 
  4.162458733641e-05 
  4.164762926375e-05 
  4.142662565707e-05 
  4.156550367779e-05 
  4.198424106538e-05 
  4.241679856747e-05 
  4.227253947166e-05 
  4.242750498244e-05 
  4.299501122248e-05 
  4.291958834694e-05 
  4.342676657109e-05 
  4.579667029504e-05 
  4.535269857067e-05 
  4.487039931783e-05 
  4.436899883016e-05 
  4.387675844084e-05 
  4.342425750054e-05 
  4.508701158439e-05 
  4.477223162249e-05 
  4.444772491270e-05 
  4.413156980468e-05 
  4.384680310242e-05 
  4.451234080938e-05 
  4.432750896119e-05 
  4.415644400410e-05 
  4.401408446846e-05 
  4.403861731722e-05 
  4.398348256242e-05 
  4.395944776640e-05 
  4.363875400561e-05 
  4.371187976537e-05 
  4.329123593344e-05 
  3.330948459783e-05 
  3.175628473306e-05 
  2.998981858290e-05 
  2.796422031514e-05 
  2.560985686722e-05 
  2.288704016287e-05 
  3.235418638100e-05 
  3.064625872447e-05 
  2.869409831401e-05 
  2.644789468942e-05 
  2.383208691736e-05 
  3.159399506719e-05 
  2.978346765355e-05 
  2.772497373645e-05 
  2.535908804010e-05 
  3.112316534288e-05 
  2.927483846988e-05 
  2.718434142484e-05 
  3.094595653927e-05 
  2.912785267246e-05 
  3.105067404170e-05 
  4.800540987475e-05 
  4.690389497518e-05 
  4.591021029611e-05 
  4.496814253153e-05 
  4.406009013670e-05 
  4.310514145683e-05 
  4.708990753056e-05 
  4.610097011969e-05 
  4.515368389857e-05 
  4.422916773788e-05 
  4.328160137449e-05 
  4.623871928826e-05 
  4.531321939734e-05 
  4.440390789539e-05 
  4.347595323361e-05 
  4.544868920411e-05 
  4.457674633126e-05 
  4.367462775488e-05 
  4.466395796202e-05 
  4.382159560924e-05 
  4.523710441827e-05 
  4.171076810396e-05 
  4.169664897934e-05 
  4.169671086185e-05 
  4.169603412762e-05 
  4.169752325890e-05 
  4.174272804586e-05 
  4.168948341723e-05 
  4.169155463871e-05 
  4.169213663406e-05 
  4.169200900960e-05 
  4.168684224990e-05 
  4.169187128399e-05 
  4.169229106983e-05 
  4.169270451036e-05 
  4.169358483248e-05 
  4.169009760037e-05 
  4.169123216068e-05 
  4.169127251641e-05 
  4.169028688718e-05 
  4.169132955444e-05 
  4.168452569921e-05 
  4.958756917838e-05 
  4.893964606507e-05 
  4.834807784504e-05 
  4.786161145336e-05 
  4.734446581244e-05 
  4.836206672180e-05 
  5.001573535062e-05 
  4.925811289955e-05 
  4.861771589637e-05 
  4.810349885323e-05 
  4.755421405368e-05 
  5.024325478359e-05 
  4.944599642523e-05 
  4.879613836005e-05 
  4.824216452171e-05 
  5.040475703259e-05 
  4.958986926585e-05 
  4.889161772630e-05 
  5.048084009990e-05 
  4.961928035257e-05 
  5.040519594220e-05 
  4.963867094969e-05 
  4.950149120649e-05 
  4.921984683054e-05 
  4.887675588758e-05 
  4.845926475485e-05 
  4.800072434189e-05 
  4.834256433817e-05 
  4.811945686883e-05 
  4.781978892917e-05 
  4.747721997646e-05 
  4.708877158328e-05 
  4.717423525708e-05 
  4.690691666835e-05 
  4.658594976292e-05 
  4.623879731506e-05 
  4.610582845500e-05 
  4.580281144393e-05 
  4.545241716634e-05 
  4.500593320138e-05 
  4.465525946982e-05 
  4.533053373427e-05 
  4.580345907297e-05 
  4.664437685181e-05 
  4.770886218786e-05 
  4.908209084678e-05 
  5.089548420161e-05 
  5.320652731884e-05 
  4.614380019366e-05 
  4.707403462089e-05 
  4.829409484344e-05 
  4.994540808452e-05 
  5.218460400285e-05 
  4.642527209485e-05 
  4.746747056826e-05 
  4.891293017304e-05 
  5.094149723617e-05 
  4.662444725939e-05 
  4.782726798055e-05 
  4.957773014497e-05 
  4.672773982966e-05 
  4.813147466604e-05 
  4.659623251921e-05 
  5.322755897025e-05 
  5.089207306077e-05 
  4.908348412416e-05 
  4.770782541493e-05 
  4.664385036397e-05 
  4.579942193180e-05 
  5.196131311088e-05 
  5.003040586545e-05 
  4.851313504692e-05 
  4.730046555040e-05 
  4.631437243428e-05 
  5.080413863168e-05 
  4.921367611615e-05 
  4.790513584224e-05 
  4.681572809046e-05 
  4.978717883479e-05 
  4.843365250072e-05 
  4.727642577362e-05 
  4.886712191807e-05 
  4.768552344516e-05 
  4.803102441019e-05 
  5.753355320033e-05 
  5.709489986753e-05 
  5.638524928504e-05 
  5.548641064718e-05 
  5.441407339323e-05 
  5.321417652495e-05 
  5.488967896376e-05 
  5.433566614033e-05 
  5.365092188454e-05 
  5.285274789634e-05 
  5.196359334758e-05 
  5.263229771092e-05 
  5.209689767503e-05 
  5.148241768974e-05 
  5.080187283813e-05 
  5.081784739990e-05 
  5.033145942672e-05 
  4.979079789763e-05 
  4.930609040899e-05 
  4.886420234505e-05 
  4.804650840644e-05 
  5.970219991755e-05 
  5.533455169464e-05 
  5.224367856575e-05 