# vtk DataFile Version 2
NuDG++ 2D simulation
ASCII
DATASET UNSTRUCTURED_GRID

POINTS 2244 double
 -1.656250060000e-01  -2.000000030000e-01  0.0
 -1.828125045000e-01  -1.772221997500e-01  0.0
 -2.000000030000e-01  -1.544443965000e-01  0.0
 -1.828125045000e-01  -2.000000030000e-01  0.0
 -2.000000030000e-01  -1.772221997500e-01  0.0
 -2.000000030000e-01  -2.000000030000e-01  0.0
 -6.428571790000e-02  -1.700000018000e-01  0.0
 -8.058035746000e-02  -1.850000024000e-01  0.0
 -9.687499702000e-02  -2.000000030000e-01  0.0
 -6.339285895000e-02  -1.850000024000e-01  0.0
 -7.968749851000e-02  -2.000000030000e-01  0.0
 -6.250000000000e-02  -2.000000030000e-01  0.0
 -2.000000030000e-01  -1.544443965000e-01  0.0
 -1.750000045000e-01  -1.379364989500e-01  0.0
 -1.500000060000e-01  -1.214286014000e-01  0.0
 -2.000000030000e-01  -1.316666491500e-01  0.0
 -1.750000045000e-01  -1.151587516000e-01  0.0
 -2.000000030000e-01  -1.088889018000e-01  0.0
 -1.500000060000e-01  -1.214286014000e-01  0.0
 -1.750000045000e-01  -1.379364989500e-01  0.0
 -2.000000030000e-01  -1.544443965000e-01  0.0
 -1.500000060000e-01  -1.457143016000e-01  0.0
 -1.750000045000e-01  -1.622221991500e-01  0.0
 -1.500000060000e-01  -1.700000018000e-01  0.0
 -1.500000060000e-01  -7.285714149000e-02  0.0
 -1.750000045000e-01  -9.087302164500e-02  0.0
 -2.000000030000e-01  -1.088889018000e-01  0.0
 -1.500000060000e-01  -9.714287144500e-02  0.0
 -1.750000045000e-01  -1.151587516000e-01  0.0
 -1.500000060000e-01  -1.214286014000e-01  0.0
  1.832975030000e+00  -4.625000060000e-02  0.0
  1.853987515000e+00  -1.231250018000e-01  0.0
  1.875000000000e+00  -2.000000030000e-01  0.0
  1.916487515000e+00  -7.187499851000e-02  0.0
  1.937500000000e+00  -1.487499997100e-01  0.0
  2.000000000000e+00  -9.749999642000e-02  0.0
 -1.500000060000e-01  -1.700000018000e-01  0.0
 -1.360000037000e-01  -1.525000036000e-01  0.0
 -1.220000014000e-01  -1.350000054000e-01  0.0
 -1.500000060000e-01  -1.457143016000e-01  0.0
 -1.360000037000e-01  -1.282143034000e-01  0.0
 -1.500000060000e-01  -1.214286014000e-01  0.0
  2.849999964000e-01  -2.333333530000e-02  0.0
  2.837499976000e-01  -8.166666795000e-02  0.0
  2.824999988000e-01  -1.400000006000e-01  0.0
  3.174999952000e-01  -4.666666780000e-02  0.0
  3.162499964000e-01  -1.050000004500e-01  0.0
  3.499999940000e-01  -7.000000030000e-02  0.0
 -1.071429029000e-01  -1.700000018000e-01  0.0
 -8.571431040000e-02  -1.700000018000e-01  0.0
 -6.428571790000e-02  -1.700000018000e-01  0.0
 -9.857145324000e-02  -1.525000036000e-01  0.0
 -7.714286074000e-02  -1.525000036000e-01  0.0
 -9.000000358000e-02  -1.350000054000e-01  0.0
 -1.312499940000e-01  -2.000000030000e-01  0.0
 -1.191964484500e-01  -1.850000024000e-01  0.0
 -1.071429029000e-01  -1.700000018000e-01  0.0
 -1.406250000000e-01  -1.850000024000e-01  0.0
 -1.285714544500e-01  -1.700000018000e-01  0.0
 -1.500000060000e-01  -1.700000018000e-01  0.0
 -1.220000014000e-01  -1.350000054000e-01  0.0
 -1.060000024900e-01  -1.350000054000e-01  0.0
 -9.000000358000e-02  -1.350000054000e-01  0.0
 -1.185000017500e-01  -1.175000034500e-01  0.0
 -1.025000028400e-01  -1.175000034500e-01  0.0
 -1.150000021000e-01  -1.000000015000e-01  0.0
 -9.000000358000e-02  -1.350000054000e-01  0.0
 -1.060000024900e-01  -1.350000054000e-01  0.0
 -1.220000014000e-01  -1.350000054000e-01  0.0
 -9.857145324000e-02  -1.525000036000e-01  0.0
 -1.145714521500e-01  -1.525000036000e-01  0.0
 -1.071429029000e-01  -1.700000018000e-01  0.0
 -7.778175920000e-02  -9.192386270000e-02  0.0
 -9.639088065000e-02  -9.596193210000e-02  0.0
 -1.150000021000e-01  -1.000000015000e-01  0.0
 -8.389088139000e-02  -1.134619340500e-01  0.0
 -1.025000028400e-01  -1.175000034500e-01  0.0
 -9.000000358000e-02  -1.350000054000e-01  0.0
 -1.220000014000e-01  -1.350000054000e-01  0.0
 -1.185000017500e-01  -1.175000034500e-01  0.0
 -1.150000021000e-01  -1.000000015000e-01  0.0
 -1.360000037000e-01  -1.282143034000e-01  0.0
 -1.325000040500e-01  -1.107143014500e-01  0.0
 -1.500000060000e-01  -1.214286014000e-01  0.0
 -7.778175920000e-02  -9.192386270000e-02  0.0
 -8.389088139000e-02  -1.134619340500e-01  0.0
 -9.000000358000e-02  -1.350000054000e-01  0.0
 -6.639088876500e-02  -1.022535823500e-01  0.0
 -7.250001095500e-02  -1.237916537000e-01  0.0
 -5.500001833000e-02  -1.125833020000e-01  0.0
 -1.071429029000e-01  -1.700000018000e-01  0.0
 -1.145714521500e-01  -1.525000036000e-01  0.0
 -1.220000014000e-01  -1.350000054000e-01  0.0
 -1.285714544500e-01  -1.700000018000e-01  0.0
 -1.360000037000e-01  -1.525000036000e-01  0.0
 -1.500000060000e-01  -1.700000018000e-01  0.0
  6.250000093000e-03  -2.000000030000e-01  0.0
  4.062500153650e-02  -2.000000030000e-01  0.0
  7.500000298000e-02  -2.000000030000e-01  0.0
  1.383928512150e-02  -1.850000024000e-01  0.0
  4.821428656500e-02  -1.850000024000e-01  0.0
  2.142857015000e-02  -1.700000018000e-01  0.0
 -1.500000060000e-01  -7.285714149000e-02  0.0
 -1.500000060000e-01  -9.714287144500e-02  0.0
 -1.500000060000e-01  -1.214286014000e-01  0.0
 -1.325000040500e-01  -8.642857149500e-02  0.0
 -1.325000040500e-01  -1.107143014500e-01  0.0
 -1.150000021000e-01  -1.000000015000e-01  0.0
 -2.000000030000e-01  -6.333333254000e-02  0.0
 -1.750000045000e-01  -6.809523701500e-02  0.0
 -1.500000060000e-01  -7.285714149000e-02  0.0
 -1.750000045000e-01  -4.380952660000e-02  0.0
 -1.500000060000e-01  -4.857143107500e-02  0.0
 -1.500000060000e-01  -2.428572066000e-02  0.0
 -2.000000030000e-01  -6.333333254000e-02  0.0
 -2.000000030000e-01  -8.611111717000e-02  0.0
 -2.000000030000e-01  -1.088889018000e-01  0.0
 -1.750000045000e-01  -6.809523701500e-02  0.0
 -1.750000045000e-01  -9.087302164500e-02  0.0
 -1.500000060000e-01  -7.285714149000e-02  0.0
 -2.000000030000e-01  -6.333333254000e-02  0.0
 -1.750000045000e-01  -4.380952660000e-02  0.0
 -1.500000060000e-01  -2.428572066000e-02  0.0
 -2.000000030000e-01  -4.055555630500e-02  0.0
 -1.750000045000e-01  -2.103175036500e-02  0.0
 -2.000000030000e-01  -1.777778007000e-02  0.0
 -1.500000060000e-01  -2.428572066000e-02  0.0
 -1.500000060000e-01  -4.857143107500e-02  0.0
 -1.500000060000e-01  -7.285714149000e-02  0.0
 -1.281259023000e-01  -2.896608505500e-02  0.0
 -1.281259023000e-01  -5.325179547000e-02  0.0
 -1.062517986000e-01  -3.364644945000e-02  0.0
 -1.099999994000e-01   1.996667010000e-08  0.0
 -1.300000027000e-01  -1.214285034666e-02  0.0
 -1.500000060000e-01  -2.428572066000e-02  0.0
 -1.081258990000e-01  -1.682321474166e-02  0.0
 -1.281259023000e-01  -2.896608505500e-02  0.0
 -1.062517986000e-01  -3.364644945000e-02  0.0
 -1.500000060000e-01  -2.428572066000e-02  0.0
 -1.500000060000e-01   0.000000000000e+00  0.0
 -1.500000060000e-01   2.428572066000e-02  0.0
 -1.750000045000e-01  -2.103175036500e-02  0.0
 -1.750000045000e-01   3.253970295000e-03  0.0
 -2.000000030000e-01  -1.777778007000e-02  0.0
 -1.500000060000e-01  -7.285714149000e-02  0.0
 -1.226314045700e-01  -6.892856210000e-02  0.0
 -9.526280314000e-02  -6.499998271000e-02  0.0
 -1.281259023000e-01  -5.325179547000e-02  0.0
 -1.007573008700e-01  -4.932321608000e-02  0.0
 -1.062517986000e-01  -3.364644945000e-02  0.0
  3.499999940000e-01   1.400000006000e-01  0.0
  4.021931737500e-01   1.224999986500e-01  0.0
  4.543863535000e-01   1.049999967000e-01  0.0
  4.187500029500e-01   1.749999970000e-01  0.0
  4.709431827000e-01   1.574999950500e-01  0.0
  4.875000119000e-01   2.099999934000e-01  0.0
 -7.101409137000e-02  -4.349999130000e-02  0.0
 -8.313844725500e-02  -5.424998700500e-02  0.0
 -9.526280314000e-02  -6.499998271000e-02  0.0
 -6.449843011500e-02  -5.250913650000e-02  0.0
 -7.662278600000e-02  -6.325913220500e-02  0.0
 -5.798276886000e-02  -6.151828170000e-02  0.0
 -9.526280314000e-02  -6.499998271000e-02  0.0
 -1.226314045700e-01  -6.892856210000e-02  0.0
 -1.500000060000e-01  -7.285714149000e-02  0.0
 -1.051314026200e-01  -8.249999210500e-02  0.0
 -1.325000040500e-01  -8.642857149500e-02  0.0
 -1.150000021000e-01  -1.000000015000e-01  0.0
 -6.181925908000e-02  -1.656441018000e-02  0.0
 -7.051259093000e-02  -1.954082492500e-02  0.0
 -7.920592278000e-02  -2.251723967000e-02  0.0
 -5.862244405000e-02  -2.428220026000e-02  0.0
 -6.731577590000e-02  -2.725861500500e-02  0.0
 -5.542562902000e-02  -3.199999034000e-02  0.0
 -7.920592278000e-02  -2.251723967000e-02  0.0
 -9.272886069000e-02  -2.808184456000e-02  0.0
 -1.062517986000e-01  -3.364644945000e-02  0.0
 -7.511000707500e-02  -3.300861548500e-02  0.0
 -8.863294498500e-02  -3.857322037500e-02  0.0
 -7.101409137000e-02  -4.349999130000e-02  0.0
 -7.101409137000e-02  -4.349999130000e-02  0.0
 -6.321986019500e-02  -3.774999082000e-02  0.0
 -5.542562902000e-02  -3.199999034000e-02  0.0
 -7.511000707500e-02  -3.300861548500e-02  0.0
 -6.731577590000e-02  -2.725861500500e-02  0.0
 -7.920592278000e-02  -2.251723967000e-02  0.0
 -7.920592278000e-02  -2.251723967000e-02  0.0
 -9.460296109000e-02  -1.125860985166e-02  0.0
 -1.099999994000e-01   1.996667010000e-08  0.0
 -9.272886069000e-02  -2.808184456000e-02  0.0
 -1.081258990000e-01  -1.682321474166e-02  0.0
 -1.062517986000e-01  -3.364644945000e-02  0.0
 -7.778175920000e-02  -9.192386270000e-02  0.0
 -6.788226403000e-02  -7.672107220000e-02  0.0
 -5.798276886000e-02  -6.151828170000e-02  0.0
 -8.652228117000e-02  -7.846192270500e-02  0.0
 -7.662278600000e-02  -6.325913220500e-02  0.0
 -9.526280314000e-02  -6.499998271000e-02  0.0
 -7.101409137000e-02  -4.349999130000e-02  0.0
 -8.863294498500e-02  -3.857322037500e-02  0.0
 -1.062517986000e-01  -3.364644945000e-02  0.0
 -8.313844725500e-02  -5.424998700500e-02  0.0
 -1.007573008700e-01  -4.932321608000e-02  0.0
 -9.526280314000e-02  -6.499998271000e-02  0.0
 -7.778175920000e-02  -9.192386270000e-02  0.0
 -8.652228117000e-02  -7.846192270500e-02  0.0
 -9.526280314000e-02  -6.499998271000e-02  0.0
 -9.639088065000e-02  -9.596193210000e-02  0.0
 -1.051314026200e-01  -8.249999210500e-02  0.0
 -1.150000021000e-01  -1.000000015000e-01  0.0
[...]
POINT_DATA 2244
SCALARS field1 double 1
LOOKUP_TABLE default
  2.845531414547e-03 
  9.589090873954e-02 
  1.889362860645e-01 
  1.366095465226e-03 
  9.441147279022e-02 
 -1.133404840958e-04 
  2.952927752389e-01 
  1.470087768288e-01 
 -1.275221581329e-03 
  1.486063831402e-01 
  3.223847300472e-04 
  1.919991041423e-03 
  1.866418381974e-01 
  2.415077690498e-01 
  2.963736999022e-01 
  2.571771182824e-01 
  3.120430491347e-01 
  3.277123983673e-01 
  2.976322504061e-01 
  2.420266505226e-01 
  1.864210506391e-01 
  2.249281322799e-01 
  1.693225323964e-01 
  1.522240141537e-01 
  4.071329771304e-01 
  3.676163669716e-01 
  3.280997568128e-01 
  3.538066269653e-01 
  3.142900168064e-01 
  3.004802768001e-01 
  2.959480312924e-01 
  1.365587412713e-01 
 -2.283054874985e-02 
  3.170601669405e-01 
  1.576708769194e-01 
  3.381723025887e-01 
  1.526297681712e-01 
  2.179982835692e-01 
  2.833667989673e-01 
  2.257513971928e-01 
  2.911199125908e-01 
  2.988730262143e-01 
  3.809277345488e-01 
  3.796736141914e-01 
  3.784194938341e-01 
  3.859018369193e-01 
  3.846477165620e-01 
  3.908759392899e-01 
  2.148043803521e-01 
  2.545668765128e-01 
  2.943293726735e-01 
  2.670603314644e-01 
  3.068228276251e-01 
  3.193162825767e-01 
  2.371633331714e-04 
  1.075858434850e-01 
  2.149345236368e-01 
  7.390617063068e-02 
  1.812548507825e-01 
  1.475751779282e-01 
  2.800799924743e-01 
  2.983926403831e-01 
  3.167052882918e-01 
  3.288161105189e-01 
  3.471287584276e-01 
  3.775522285634e-01 
  3.167651271689e-01 
  2.985176372612e-01 
  2.802701473534e-01 
  2.657613214274e-01 
  2.475138315197e-01 
  2.147575156859e-01 
  4.168794945523e-01 
  3.969616959801e-01 
  3.770438974080e-01 
  3.682317424275e-01 
  3.483139438553e-01 
  3.195839903026e-01 
  2.815661931761e-01 
  3.297297703126e-01 
  3.778933474492e-01 
  2.908907266793e-01 
  3.390543038159e-01 
  3.002152601826e-01 
  4.172590360470e-01 
  3.681112711329e-01 
  3.189635062187e-01 
  4.233573863665e-01 
  3.742096214523e-01 
  4.294557366860e-01 
  2.133125182734e-01 
  2.482313955889e-01 
  2.831502729044e-01 
  1.820963421193e-01 
  2.170152194348e-01 
  1.508801659652e-01 
  1.459321576268e-03 
  3.183133608921e-03 
  4.906945641575e-03 
  2.090280078348e-01 
  2.107518198674e-01 
  4.165966940933e-01 
  4.066551775913e-01 
  3.536034835563e-01 
  3.005517895214e-01 
  3.922111433160e-01 
  3.391594492811e-01 
  3.777671090408e-01 
  4.233020139204e-01 
  4.135637351703e-01 
  4.038254564203e-01 
  4.342275358607e-01 
  4.244892571107e-01 
  4.451530578011e-01 
  4.222096385421e-01 
  3.755047535191e-01 
  3.287998684961e-01 
  4.135047176326e-01 
  3.667998326096e-01 
  4.047997967231e-01 
  4.246272607172e-01 
  4.350131052203e-01 
  4.453989497234e-01 
  4.478184300880e-01 
  4.582042745910e-01 
  4.710095994587e-01 
  4.454881954144e-01 
  4.262687642559e-01 
  4.070493330975e-01 
  4.151770772893e-01 
  3.959576461309e-01 
  3.848659591643e-01 
  3.606314097588e-01 
  4.032544531857e-01 
  4.458774966126e-01 
  3.705739013571e-01 
  4.131969447840e-01 
  3.805163929554e-01 
  4.409755724328e-01 
  4.461129510597e-01 
  4.512503296866e-01 
  4.562964369803e-01 
  4.614338156072e-01 
  4.716173015278e-01 
  4.059807571987e-01 
  3.944741206548e-01 
  3.829674841110e-01 
  3.947651584821e-01 
  3.832585219383e-01 
  3.835495597655e-01 
  3.684001697926e-01 
  4.083919830107e-01 
  4.483837962288e-01 
  2.160572360432e-01 
  2.560490492613e-01 
  6.371430229374e-02 
  3.506725826758e-01 
  3.701687331608e-01 
  3.896648836458e-01 
  3.927564344205e-01 
  4.122525849055e-01 
  4.348402861652e-01 
  3.844109961765e-01 
  3.953596095430e-01 
  4.063082229095e-01 
  3.820255202414e-01 
  3.929741336079e-01 
  3.796400443063e-01 
  1.343740714926e-01 
  2.050859460095e-01 
  2.757978205265e-01 
  1.760786668981e-01 
  2.467905414150e-01 
  2.177832623036e-01 
  2.663105905482e-01 
  3.226859886070e-01 
  3.790613866659e-01 
  3.085045552709e-01 
  3.648799533298e-01 
  3.506985199937e-01 
  3.511323485212e-01 
  2.869139943704e-01 
  2.226956402196e-01 
  3.115735621351e-01 
  2.473552079843e-01 
  2.720147757490e-01 
  2.652428864942e-01 
  3.108327154555e-01 
  3.564225444168e-01 
  3.227867665494e-01 
  3.683765955107e-01 
  3.803306466047e-01 
  4.178790332128e-01 
  4.281636990699e-01 
  4.384483649269e-01 
  4.028416488231e-01 
  4.131263146802e-01 
  3.878042644335e-01 
  3.531459044350e-01 
  3.670463946781e-01 
  3.809468849212e-01 
  3.719954730155e-01 
  3.858959632586e-01 
  3.908450415960e-01 
  4.136270961575e-01 
  3.991220541325e-01 
  3.846170121076e-01 
  3.954262547677e-01 
  3.809212127428e-01 
  3.772254133780e-01 
  2.725151658689e-01 
  2.052447079401e-01 
  1.379742500113e-01 
  2.582726971067e-01 
  1.910022391778e-01 
  2.440302283444e-01 
  4.281917381212e-01 
  3.738682422452e-01 
  3.195447463693e-01 
  3.617502234081e-01 
  3.074267275321e-01 
  2.953087086950e-01 
  3.054090877431e-01 
  3.229408023437e-01 
  3.404725169443e-01 
  3.284604357968e-01 
  3.459921503973e-01 
  3.515117838504e-01 
  4.497777334483e-01 
  4.103438746318e-01 
  3.709100158154e-01 
  4.708369284901e-01 
  4.314030696736e-01 
  4.918961235319e-01 
  4.461893371137e-01 
  4.361783672115e-01 
  4.261673973092e-01 
  3.709052695821e-01 
  3.608942996799e-01 
  2.956212020506e-01 
  4.162208137358e-01 
  4.655625530140e-01 
  5.149042922921e-01 
  4.267948689880e-01 
  4.761366082661e-01 
  4.373689242401e-01 
  5.174836550345e-01 
  4.670298797748e-01 
  4.165761045151e-01 
  4.761141220584e-01 
  4.256603467987e-01 
  4.347445890822e-01 
  5.885769600960e-01 
  5.540233755833e-01 
  5.194697910706e-01 
  5.098362834336e-01 
  4.752826989209e-01 
  4.310956067712e-01 
  4.805969113798e-01 
  4.585673809896e-01 
  4.365378505994e-01 
  5.010470940514e-01 
  4.790175636612e-01 
  5.214972767230e-01 
  4.277675561389e-01 
  4.398766823793e-01 
  4.519858086196e-01 
  5.094590834174e-01 
  5.215682096578e-01 
  5.911506106959e-01 
  4.487711554331e-01 
  3.728140999668e-01 
  2.968570445005e-01 
  4.095636375309e-01 
  3.336065820646e-01 
  3.703561196287e-01 
  6.293471566275e-01 
  6.113090120398e-01 
  5.932708674521e-01 
  5.423313409293e-01 
  5.242931963416e-01 
  4.553155252310e-01 
  9.407977799279e-04 
  2.324278644125e-01 
  4.639149310451e-01 
 -2.775477970270e-03 
  2.287115886623e-01 
 -6.491753720467e-03 
  6.029599766464e-01 
  5.434094543063e-01 
  4.838589319662e-01 
  5.604036859044e-01 
  5.008531635643e-01 
  5.178473951624e-01 
  4.803550239173e-01 
  5.417406067904e-01 
  6.031261896634e-01 
  5.490520140859e-01 
  6.104375969590e-01 
  6.177490042545e-01 
  5.162442410854e-01 
  4.983578091350e-01 
  4.804713771845e-01 
  2.634255601487e-01 
  2.455391281983e-01 
  1.060687921199e-02 
  5.923605704942e-01 
  5.564376812205e-01 
  5.205147919468e-01 
  5.575429924844e-01 
  5.216201032107e-01 
  5.227254144746e-01 
  5.783692441129e-01 
  5.219884681605e-01 
  4.656076922081e-01 
  6.002339585063e-01 
  5.438531825539e-01 
  6.220986728997e-01 
  6.291313333892e-01 
  5.425899796496e-01 
  4.560486259100e-01 
  5.593178271938e-01 
  4.727764734542e-01 
  4.895043209984e-01 
  3.716342338512e-01 
  3.893305599386e-01 
  4.070268860260e-01 
  4.321061035332e-01 
  4.498024296206e-01 
  4.925779732153e-01 
  4.785084877111e-01 
  5.027253754681e-01 
  5.269422632252e-01 
  4.982892168580e-01 
  5.225061046151e-01 
  5.180699460050e-01 
 -1.633428535271e-03 
  1.127334611277e-01 
  2.271003507906e-01 
  5.015864021409e-03 
  1.193827536844e-01 
  1.166515657809e-02 
  2.234860012071e-01 
  2.850393473121e-01 
  3.465926934172e-01 
  2.930062920323e-01 
  3.545596381373e-01 
  3.625265828574e-01 
  3.434074012498e-01 
  1.748425768365e-01 
  6.277752423256e-03 
  1.717013435617e-01 
  3.136519148385e-03 
 -4.714126486936e-06 
 -8.767177451815e-03 
  1.989433974282e-02 
  4.855585693745e-02 
  6.163878663043e-02 
  9.030030382507e-02 
  1.320447507127e-01 
  3.736041394190e-03 
 -2.893574687673e-03 
 -9.523190769537e-03 
  1.086836885633e-01 
  1.020540724815e-01 
  2.136313357325e-01 
  2.460740825877e-01 
  1.236482087868e-01 
  1.222334985823e-03 
  2.161236884898e-01 
  9.369781468886e-02 
  1.861732943919e-01 
  2.250497190616e-01 
  2.984348160607e-01 
  3.718199130598e-01 
  1.205140101022e-01 
  1.938991071013e-01 
  1.597830114272e-02 
 -1.289467252532e-02 
  5.849730401326e-02 
  1.298892805518e-01 
  9.985686241503e-02 
  1.712488389536e-01 
  2.126083973554e-01 
  4.107173198877e-03 
  4.888310906490e-03 
  5.669448614102e-03 
  2.616065159680e-01 
  2.623876536757e-01 
  5.191058587372e-01 
  9.392077269447e-03 
  2.454474697108e-01 
  4.815028621521e-01 
  5.309766491235e-03 
  2.413651589326e-01 
  1.227455713023e-03 
  3.925306447186e-01 
  1.980593085606e-01 
  3.587972402613e-03 
  3.566737388052e-01 
  1.622024026472e-01 
  3.208168328918e-01 
  3.808294109620e-03 
  1.964293776454e-01 
  3.890504611812e-01 
  9.756391322527e-03 
  2.023774748583e-01 
  1.570448853543e-02 
  1.354297753818e-02 
  2.461507260141e-01 
  4.787584744901e-01 
  2.635345429230e-01 
  4.961422913990e-01 
  5.135261083079e-01 
  3.730058750118e-01 
  1.909006062966e-01 
  8.795337581444e-03 
  3.895472554631e-01 
  2.074419867479e-01 
  4.060886359144e-01 
  2.193052418916e-01 
  1.100778305296e-01 
  8.504191675905e-04 
  1.115361527571e-01 
  2.308741395093e-03 
  3.767063622596e-03 
  2.389202882927e-02 
  2.035323609885e-01 
  3.831726931478e-01 
  2.505823412289e-01 
  4.302226733881e-01 
  4.772726536285e-01 
  3.704559110108e-01 
  4.038913150346e-01 
  4.373267190584e-01 
  4.246917917522e-01 
  4.581271957760e-01 
  4.789276724936e-01 
  3.016388596484e-01 
  1.549621863870e-01 
  8.285513125491e-03 
  3.334209164186e-01 
  1.867442431572e-01 
  3.652029731889e-01 
  6.263788820175e-01 
  5.569000758308e-01 
  4.874212696441e-01 
  5.722479119105e-01 
  5.027691057238e-01 
  5.181169418036e-01 
  3.644950013731e-01 
  3.551159869690e-01 
  3.457369725649e-01 
  4.015016846310e-01 
  3.921226702270e-01 
  4.385083678890e-01 
  1.585803312218e-03 
  4.306849980990e-03 
  7.027896649762e-03 
  1.535567713368e-01 
  1.562778180056e-01 
  3.055277393614e-01 
  4.274061776202e-02 
  1.938548438868e-02 
 -3.969648984659e-03 
  1.942485493312e-02 
 -3.930278440215e-03 
 -3.890907895772e-03 
  4.287558438938e-01 
  4.396186377712e-01 
  4.504814316487e-01 
  4.112808949107e-01 
  4.221436887882e-01 
  3.938059459276e-01 
  4.522998762782e-01 
  4.610597054311e-01 
  4.698195345840e-01 
  4.623525315150e-01 
  4.711123606679e-01 
  4.724051867518e-01 
  4.684575612227e-01 
  4.463678057115e-01 
  4.242780502003e-01 
  4.455120225370e-01 
  4.234222670258e-01 
  4.225664838512e-01 
  4.246597813648e-01 
  4.461497673445e-01 
  4.676397533242e-01 
  4.370761524190e-01 
  4.585661383987e-01 
  4.494925234732e-01 
  4.216889533973e-01 
  4.238903540612e-01 
  4.260917547250e-01 
  3.756396591261e-01 
  3.778410597900e-01 
  3.295903648550e-01 
 -1.125774080845e-02 
 -3.227406727741e-02 
 -5.329039374638e-02 
  1.420719992740e-01 
  1.210556728050e-01 
  2.954017393565e-01 
  4.525086035502e-01 
  4.071982880287e-01 
  3.618879725071e-01 
  4.206969721601e-01 
  3.753866566386e-01 
  3.888853407700e-01 
  4.520577918796e-01 
  4.478435452570e-01 
  4.436292986344e-01 
  4.084633567878e-01 
  4.042491101652e-01 
  3.648689216960e-01 
  2.675009280834e-01 
  3.281689335136e-01 
  3.888369389438e-01 
  3.131086572630e-01 
  3.737766626931e-01 
  3.587163864425e-01 
  3.661003616741e-01 
  3.183334775918e-01 
  2.705665935095e-01 
  3.001407258695e-01 
  2.523738417872e-01 
  2.341810900649e-01 
  3.875943346515e-01 
  3.733721607658e-01 
  3.591499868801e-01 
  3.915900092065e-01 
  3.773678353208e-01 
  3.955856837615e-01 
  3.587235854935e-01 
  3.720947240977e-01 
  3.854658627019e-01 
  3.136037873196e-01 
  3.269749259238e-01 
  2.684839891456e-01 
  4.208662932955e-01 
  4.069129670454e-01 
  3.929596407952e-01 
  4.368632450230e-01 
  4.229099187729e-01 
  4.528601967505e-01 
  3.916322933135e-01 
  3.921952423367e-01 
  3.927581913598e-01 
  4.104703006397e-01 
  4.110332496629e-01 
  4.293083079660e-01 
  2.715963486278e-01 
  2.568774658033e-01 
  2.421585829788e-01 
  2.052692162109e-01 
  1.905503333863e-01 
  1.389420837939e-01 
  2.678363244744e-01 
  3.123622788951e-01 
  3.568882333158e-01 
  2.544785122690e-01 
  2.990044666897e-01 
  2.411207000636e-01 
  3.551311686590e-01 
  3.107913808768e-01 
  2.664515930945e-01 
  2.989061525671e-01 
  2.545663647849e-01 
  2.426811364752e-01 
  4.283510043101e-01 
  4.120508450623e-01 
  3.957506858145e-01 
  4.114284745019e-01 
  3.951283152541e-01 
  3.945059446937e-01 
  3.285688251568e-01 
  3.234182905524e-01 
  3.182677559480e-01 
  2.577957750023e-01 
  2.526452403978e-01 
  1.870227248477e-01 
  3.294769361671e-01 
  3.786547582938e-01 
  4.278325804204e-01 
  3.253736489798e-01 
  3.745514711064e-01 
  3.212703617924e-01 
  1.857579194485e-01 
  1.871434711707e-01 
  1.885290228929e-01 
  9.300937984557e-02 
  9.439493156778e-02 
  2.608402426324e-04 
  1.900194133764e-01 
  1.880575388154e-01 
  1.860956642544e-01 
  2.545671751561e-01 
  2.526053005951e-01 
  3.191149369358e-01 
  2.569102176270e-01 
  1.315199219704e-01 
  6.129626313715e-03 
  1.280371568693e-01 
  2.646861212671e-03 
 -8.359038883727e-04 
  3.200855381499e-02 
  1.715413501855e-02 
  2.299716222115e-03 
  2.118744507952e-01 
  1.970200319987e-01 
  3.917403477753e-01 
  3.201827165385e-01 
  3.108542085908e-01 
  3.015257006431e-01 
  2.551729922154e-01 
  2.458444842677e-01 
  1.901632678922e-01 
  3.569365461235e-01 
  1.777308403639e-01 
 -1.474865395746e-03 
  1.918582847720e-01 
  1.265257901234e-02 
  2.678002342042e-02 
  3.922308398427e-01 
  4.045596877511e-01 
  4.168885356596e-01 
  3.692169248965e-01 
  3.815457728050e-01 
  3.462030099504e-01 
  4.158753118313e-01 
  4.046428710377e-01 
  3.934104302441e-01 
  4.057545257206e-01 
  3.945220849270e-01 
  3.956337396099e-01 
  2.970588033626e-01 
  3.228246675261e-01 
  3.485905316897e-01 
  2.730736604090e-01 
  2.988395245726e-01 
  2.490885174554e-01 
  3.452883484487e-01 
  3.223206001202e-01 
  2.993528517918e-01 
  3.685246313909e-01 
  3.455568830625e-01 
  3.917609143332e-01 
  2.525829628298e-01 
  3.016753478878e-01 
  3.507677329458e-01 
  2.935477197510e-01 
  3.426401048090e-01 
  3.345124766721e-01 
  3.004503610980e-01 
  2.726127317604e-01 
  2.447751024228e-01 
  2.443636925788e-01 
  2.165260632412e-01 
  1.882770240596e-01 
  4.159483499129e-01 
  4.194818112062e-01 
  4.230152724995e-01 
  3.812622650103e-01 
  3.847957263036e-01 
  3.465761801077e-01 
  3.920202241197e-01 
  3.466162177919e-01 
  3.012122114641e-01 
  3.561947151083e-01 
  3.107907087805e-01 
  3.203692060970e-01 
  4.273118617944e-01 
  4.093526663746e-01 
  3.913934709547e-01 
  3.737806954436e-01 
  3.558215000237e-01 
  3.202495290927e-01 
  2.573627542007e-01 
  2.925510812570e-01 
  3.277394083133e-01 
  1.321538516745e-01 
  1.673421787308e-01 
  6.944949148367e-03 
  3.911213076491e-01 
  3.760710307271e-01 
  3.610207538051e-01 
  4.212820521498e-01 
  4.062317752279e-01 
  4.514427966506e-01 
  5.805234748556e-02 
  1.690042214289e-01 
  2.799560953722e-01 
  1.159298999556e-01 
  2.268817738989e-01 
  1.738074524256e-01 
  4.584338507411e-02 
  2.071335625804e-02 
 -4.416672558028e-03 
  9.129141942439e-02 
  6.616139060832e-02 
  1.367394537747e-01 
  4.178114995340e-02 
  1.865716423343e-02 
 -4.466821486533e-03 
  1.970924071495e-02 
 -3.414745005017e-03 
 -2.362668523500e-03 
  1.393015891162e-01 
  7.022347771112e-02 
  1.145366306058e-03 
  1.822432159089e-01 
  1.131651045039e-01 
  2.251848427017e-01 
  3.424570493689e-01 
  2.834197472825e-01 
  2.243824451960e-01 
  1.696107720863e-01 
  1.105734699998e-01 
 -3.235505196362e-03 
  3.524895857992e-01 
  4.054899903048e-01 
  4.584903948105e-01 
  3.599542430275e-01 
  4.129546475331e-01 
  3.674189002557e-01 
  3.470687414927e-01 
  3.590043015057e-01 
  3.709398615187e-01 
  2.881315815168e-01 
  3.000671415298e-01 
  2.291944215409e-01 
  2.325174953867e-03 
  7.045207018770e-02 
  1.385789654215e-01 
 -1.484870765043e-04 
  6.797840815733e-02 
 -2.622149106876e-03 
  2.733109001539e-01 
  2.059460249479e-01 
  1.385811497419e-01 
  2.516607916419e-01 
  1.842959164359e-01 
  2.300106831298e-01 
 -1.256069148466e-03 
  3.142047767461e-03 
  7.540164683389e-03 
  1.719061983659e-01 
  1.763043152819e-01 
  3.450684658803e-01 
  4.128069225479e-01 
  2.111735555088e-01 
  9.540188469631e-03 
  4.076126005786e-01 
  2.059792335394e-01 
  4.024182786093e-01 
  2.710345459728e-01 
  1.953582854950e-01 
  1.196820250173e-01 
  3.623279407496e-01 
  2.866516802719e-01 
  4.536213355264e-01 
  1.888327021938e-01 
  9.594483516973e-02 
  3.056968145613e-03 
  1.693616304807e-01 
  7.647376345655e-02 
  1.498905587675e-01 
  4.943912238214e-01 
  2.489648411857e-01 
  3.538458549943e-03 
  2.532686196119e-01 
  7.842236976185e-03 
  1.214601540243e-02 
  4.803621713196e-01 
  2.398576434134e-01 
 -6.468844928519e-04 
  2.457940297220e-01 
  5.289501815813e-03 
  1.122588812448e-02 
  3.471571818793e-01 
  1.765648388868e-01 
  5.972495894378e-03 
  3.204168020582e-01 
  1.498244590658e-01 
  2.936764222371e-01 
  3.406710383117e-01 
  1.719113960111e-01 
  3.151753710390e-03 
  4.043690081229e-01 
  2.356093658222e-01 
  4.680669779340e-01 
  3.896697300485e-01 
  3.711833484450e-01 
  3.526969668415e-01 
  3.771641562812e-01 
  3.586777746777e-01 
  3.646585825138e-01 
  5.254014122819e-01 
  2.653598756436e-01 
  5.318339005335e-03 
  2.635614307031e-01 
  3.519894064813e-03 
  1.721449124290e-03 
  4.555244083388e-01 
  4.634424286218e-01 
  4.713604489047e-01 
  4.967514642889e-01 
  5.046694845718e-01 
  5.379785202390e-01 
  4.656006320604e-01 
  4.629381513369e-01 
  4.602756706133e-01 
  4.062131675167e-01 
  4.035506867932e-01 
  3.468257029730e-01 
  4.437803625570e-01 
  3.869935851824e-01 
  3.302068078078e-01 
  4.336609830050e-01 
  3.768742056303e-01 
  4.235416034529e-01 
  3.341422610029e-01 
  3.419752672388e-01 
  3.498082734747e-01 
  3.782574789195e-01 
  3.860904851554e-01 
  4.223726968360e-01 
  4.303034580923e-01 
  4.235961144479e-01 
  4.168887708035e-01 
  4.840983850524e-01 
  4.773910414080e-01 
  5.378933120126e-01 
  5.382666281733e-01 
  5.697239997729e-01 
  6.011813713725e-01 
  4.837010786334e-01 
  5.151584502330e-01 
  4.291355290934e-01 
  5.380178521713e-01 
  5.079098346483e-01 
  4.778018171253e-01 
  5.304703426994e-01 
  5.003623251764e-01 
  5.229228332274e-01 
  4.530621521573e-01 
  4.937607267319e-01 
  5.344593013064e-01 
  4.354550402313e-01 
  4.761536148059e-01 
  4.178479283054e-01 
  5.197568040328e-01 
  5.046800490691e-01 
  4.896032941053e-01 
  5.638581194159e-01 
  5.487813644521e-01 
  6.079594347990e-01 
  5.226843039229e-01 
  5.061489266021e-01 
  4.896135492813e-01 
  2.707921642826e-01 
  2.542567869618e-01 
  1.890002464236e-02 
  4.579803588064e-01 
  5.312665210223e-01 
  6.045526832383e-01 
  5.425734651952e-01 
  6.158596274112e-01 
  6.271665715841e-01 
  6.043364079430e-01 
  5.289438967581e-01 
  4.535513855731e-01 
  5.150509531392e-01 
  4.396584419543e-01 
  4.257654983355e-01 
  3.905267184123e-01 
  4.189155931065e-01 
  4.473044678007e-01 
  4.432291133184e-01 
  4.716179880126e-01 
  4.959315082244e-01 
  4.459388869519e-01 
  4.177098446604e-01 
  3.894808023688e-01 
  3.861759827897e-01 
  3.579469404981e-01 
  3.264130786274e-01 
  6.153333141690e-01 
  6.120719658056e-01 
  6.088106174422e-01 
  5.507423241332e-01 
  5.474809757698e-01 
  4.861513340974e-01 
  5.214562500841e-01 
  5.607874858350e-01 
  6.001187215860e-01 
  5.292364756699e-01 
  5.685677114209e-01 
  5.370167012557e-01 
  9.548138440957e-03 
  2.492366754361e-01 
  4.889252124313e-01 
  2.655150158743e-01 
  5.052035528695e-01 
  5.214818933077e-01 