# vtk DataFile Version 2
NuDG++ 2D simulation
ASCII
DATASET UNSTRUCTURED_GRID

POINTS 2244 double
 -1.656250060000e-01  -2.000000030000e-01  0.0
 -1.828125045000e-01  -1.772221997500e-01  0.0
 -2.000000030000e-01  -1.544443965000e-01  0.0
 -1.828125045000e-01  -2.000000030000e-01  0.0
 -2.000000030000e-01  -1.772221997500e-01  0.0
 -2.000000030000e-01  -2.000000030000e-01  0.0
 -6.428571790000e-02  -1.700000018000e-01  0.0
 -8.058035746000e-02  -1.850000024000e-01  0.0
 -9.687499702000e-02  -2.000000030000e-01  0.0
 -6.339285895000e-02  -1.850000024000e-01  0.0
 -7.968749851000e-02  -2.000000030000e-01  0.0
 -6.250000000000e-02  -2.000000030000e-01  0.0
 -2.000000030000e-01  -1.544443965000e-01  0.0
 -1.750000045000e-01  -1.379364989500e-01  0.0
 -1.500000060000e-01  -1.214286014000e-01  0.0
 -2.000000030000e-01  -1.316666491500e-01  0.0
 -1.750000045000e-01  -1.151587516000e-01  0.0
 -2.000000030000e-01  -1.088889018000e-01  0.0
 -1.500000060000e-01  -1.214286014000e-01  0.0
 -1.750000045000e-01  -1.379364989500e-01  0.0
 -2.000000030000e-01  -1.544443965000e-01  0.0
 -1.500000060000e-01  -1.457143016000e-01  0.0
 -1.750000045000e-01  -1.622221991500e-01  0.0
 -1.500000060000e-01  -1.700000018000e-01  0.0
 -1.500000060000e-01  -7.285714149000e-02  0.0
 -1.750000045000e-01  -9.087302164500e-02  0.0
 -2.000000030000e-01  -1.088889018000e-01  0.0
 -1.500000060000e-01  -9.714287144500e-02  0.0
 -1.750000045000e-01  -1.151587516000e-01  0.0
 -1.500000060000e-01  -1.214286014000e-01  0.0
  1.832975030000e+00  -4.625000060000e-02  0.0
  1.853987515000e+00  -1.231250018000e-01  0.0
  1.875000000000e+00  -2.000000030000e-01  0.0
  1.916487515000e+00  -7.187499851000e-02  0.0
  1.937500000000e+00  -1.487499997100e-01  0.0
  2.000000000000e+00  -9.749999642000e-02  0.0
 -1.500000060000e-01  -1.700000018000e-01  0.0
 -1.360000037000e-01  -1.525000036000e-01  0.0
 -1.220000014000e-01  -1.350000054000e-01  0.0
 -1.500000060000e-01  -1.457143016000e-01  0.0
 -1.360000037000e-01  -1.282143034000e-01  0.0
 -1.500000060000e-01  -1.214286014000e-01  0.0
  2.849999964000e-01  -2.333333530000e-02  0.0
  2.837499976000e-01  -8.166666795000e-02  0.0
  2.824999988000e-01  -1.400000006000e-01  0.0
  3.174999952000e-01  -4.666666780000e-02  0.0
  3.162499964000e-01  -1.050000004500e-01  0.0
  3.499999940000e-01  -7.000000030000e-02  0.0
 -1.071429029000e-01  -1.700000018000e-01  0.0
 -8.571431040000e-02  -1.700000018000e-01  0.0
 -6.428571790000e-02  -1.700000018000e-01  0.0
 -9.857145324000e-02  -1.525000036000e-01  0.0
 -7.714286074000e-02  -1.525000036000e-01  0.0
 -9.000000358000e-02  -1.350000054000e-01  0.0
 -1.312499940000e-01  -2.000000030000e-01  0.0
 -1.191964484500e-01  -1.850000024000e-01  0.0
 -1.071429029000e-01  -1.700000018000e-01  0.0
 -1.406250000000e-01  -1.850000024000e-01  0.0
 -1.285714544500e-01  -1.700000018000e-01  0.0
 -1.500000060000e-01  -1.700000018000e-01  0.0
 -1.220000014000e-01  -1.350000054000e-01  0.0
 -1.060000024900e-01  -1.350000054000e-01  0.0
 -9.000000358000e-02  -1.350000054000e-01  0.0
 -1.185000017500e-01  -1.175000034500e-01  0.0
 -1.025000028400e-01  -1.175000034500e-01  0.0
 -1.150000021000e-01  -1.000000015000e-01  0.0
 -9.000000358000e-02  -1.350000054000e-01  0.0
 -1.060000024900e-01  -1.350000054000e-01  0.0
 -1.220000014000e-01  -1.350000054000e-01  0.0
 -9.857145324000e-02  -1.525000036000e-01  0.0
 -1.145714521500e-01  -1.525000036000e-01  0.0
 -1.071429029000e-01  -1.700000018000e-01  0.0
 -7.778175920000e-02  -9.192386270000e-02  0.0
 -9.639088065000e-02  -9.596193210000e-02  0.0
 -1.150000021000e-01  -1.000000015000e-01  0.0
 -8.389088139000e-02  -1.134619340500e-01  0.0
 -1.025000028400e-01  -1.175000034500e-01  0.0
 -9.000000358000e-02  -1.350000054000e-01  0.0
 -1.220000014000e-01  -1.350000054000e-01  0.0
 -1.185000017500e-01  -1.175000034500e-01  0.0
 -1.150000021000e-01  -1.000000015000e-01  0.0
 -1.360000037000e-01  -1.282143034000e-01  0.0
 -1.325000040500e-01  -1.107143014500e-01  0.0
 -1.500000060000e-01  -1.214286014000e-01  0.0
 -7.778175920000e-02  -9.192386270000e-02  0.0
 -8.389088139000e-02  -1.134619340500e-01  0.0
 -9.000000358000e-02  -1.350000054000e-01  0.0
 -6.639088876500e-02  -1.022535823500e-01  0.0
 -7.250001095500e-02  -1.237916537000e-01  0.0
 -5.500001833000e-02  -1.125833020000e-01  0.0
 -1.071429029000e-01  -1.700000018000e-01  0.0
 -1.145714521500e-01  -1.525000036000e-01  0.0
 -1.220000014000e-01  -1.350000054000e-01  0.0
 -1.285714544500e-01  -1.700000018000e-01  0.0
 -1.360000037000e-01  -1.525000036000e-01  0.0
 -1.500000060000e-01  -1.700000018000e-01  0.0
  6.250000093000e-03  -2.000000030000e-01  0.0
  4.062500153650e-02  -2.000000030000e-01  0.0
  7.500000298000e-02  -2.000000030000e-01  0.0
  1.383928512150e-02  -1.850000024000e-01  0.0
  4.821428656500e-02  -1.850000024000e-01  0.0
  2.142857015000e-02  -1.700000018000e-01  0.0
 -1.500000060000e-01  -7.285714149000e-02  0.0
 -1.500000060000e-01  -9.714287144500e-02  0.0
 -1.500000060000e-01  -1.214286014000e-01  0.0
 -1.325000040500e-01  -8.642857149500e-02  0.0
 -1.325000040500e-01  -1.107143014500e-01  0.0
 -1.150000021000e-01  -1.000000015000e-01  0.0
 -2.000000030000e-01  -6.333333254000e-02  0.0
 -1.750000045000e-01  -6.809523701500e-02  0.0
 -1.500000060000e-01  -7.285714149000e-02  0.0
 -1.750000045000e-01  -4.380952660000e-02  0.0
 -1.500000060000e-01  -4.857143107500e-02  0.0
 -1.500000060000e-01  -2.428572066000e-02  0.0
 -2.000000030000e-01  -6.333333254000e-02  0.0
 -2.000000030000e-01  -8.611111717000e-02  0.0
 -2.000000030000e-01  -1.088889018000e-01  0.0
 -1.750000045000e-01  -6.809523701500e-02  0.0
 -1.750000045000e-01  -9.087302164500e-02  0.0
 -1.500000060000e-01  -7.285714149000e-02  0.0
 -2.000000030000e-01  -6.333333254000e-02  0.0
 -1.750000045000e-01  -4.380952660000e-02  0.0
 -1.500000060000e-01  -2.428572066000e-02  0.0
 -2.000000030000e-01  -4.055555630500e-02  0.0
 -1.750000045000e-01  -2.103175036500e-02  0.0
 -2.000000030000e-01  -1.777778007000e-02  0.0
 -1.500000060000e-01  -2.428572066000e-02  0.0
 -1.500000060000e-01  -4.857143107500e-02  0.0
 -1.500000060000e-01  -7.285714149000e-02  0.0
 -1.281259023000e-01  -2.896608505500e-02  0.0
 -1.281259023000e-01  -5.325179547000e-02  0.0
 -1.062517986000e-01  -3.364644945000e-02  0.0
 -1.099999994000e-01   1.996667010000e-08  0.0
 -1.300000027000e-01  -1.214285034666e-02  0.0
 -1.500000060000e-01  -2.428572066000e-02  0.0
 -1.081258990000e-01  -1.682321474166e-02  0.0
 -1.281259023000e-01  -2.896608505500e-02  0.0
 -1.062517986000e-01  -3.364644945000e-02  0.0
 -1.500000060000e-01  -2.428572066000e-02  0.0
 -1.500000060000e-01   0.000000000000e+00  0.0
 -1.500000060000e-01   2.428572066000e-02  0.0
 -1.750000045000e-01  -2.103175036500e-02  0.0
 -1.750000045000e-01   3.253970295000e-03  0.0
 -2.000000030000e-01  -1.777778007000e-02  0.0
 -1.500000060000e-01  -7.285714149000e-02  0.0
 -1.226314045700e-01  -6.892856210000e-02  0.0
 -9.526280314000e-02  -6.499998271000e-02  0.0
 -1.281259023000e-01  -5.325179547000e-02  0.0
 -1.007573008700e-01  -4.932321608000e-02  0.0
 -1.062517986000e-01  -3.364644945000e-02  0.0
  3.499999940000e-01   1.400000006000e-01  0.0
  4.021931737500e-01   1.224999986500e-01  0.0
  4.543863535000e-01   1.049999967000e-01  0.0
  4.187500029500e-01   1.749999970000e-01  0.0
  4.709431827000e-01   1.574999950500e-01  0.0
  4.875000119000e-01   2.099999934000e-01  0.0
 -7.101409137000e-02  -4.349999130000e-02  0.0
 -8.313844725500e-02  -5.424998700500e-02  0.0
 -9.526280314000e-02  -6.499998271000e-02  0.0
 -6.449843011500e-02  -5.250913650000e-02  0.0
 -7.662278600000e-02  -6.325913220500e-02  0.0
 -5.798276886000e-02  -6.151828170000e-02  0.0
 -9.526280314000e-02  -6.499998271000e-02  0.0
 -1.226314045700e-01  -6.892856210000e-02  0.0
 -1.500000060000e-01  -7.285714149000e-02  0.0
 -1.051314026200e-01  -8.249999210500e-02  0.0
 -1.325000040500e-01  -8.642857149500e-02  0.0
 -1.150000021000e-01  -1.000000015000e-01  0.0
 -6.181925908000e-02  -1.656441018000e-02  0.0
 -7.051259093000e-02  -1.954082492500e-02  0.0
 -7.920592278000e-02  -2.251723967000e-02  0.0
 -5.862244405000e-02  -2.428220026000e-02  0.0
 -6.731577590000e-02  -2.725861500500e-02  0.0
 -5.542562902000e-02  -3.199999034000e-02  0.0
 -7.920592278000e-02  -2.251723967000e-02  0.0
 -9.272886069000e-02  -2.808184456000e-02  0.0
 -1.062517986000e-01  -3.364644945000e-02  0.0
 -7.511000707500e-02  -3.300861548500e-02  0.0
 -8.863294498500e-02  -3.857322037500e-02  0.0
 -7.101409137000e-02  -4.349999130000e-02  0.0
 -7.101409137000e-02  -4.349999130000e-02  0.0
 -6.321986019500e-02  -3.774999082000e-02  0.0
 -5.542562902000e-02  -3.199999034000e-02  0.0
 -7.511000707500e-02  -3.300861548500e-02  0.0
 -6.731577590000e-02  -2.725861500500e-02  0.0
 -7.920592278000e-02  -2.251723967000e-02  0.0
 -7.920592278000e-02  -2.251723967000e-02  0.0
 -9.460296109000e-02  -1.125860985166e-02  0.0
 -1.099999994000e-01   1.996667010000e-08  0.0
 -9.272886069000e-02  -2.808184456000e-02  0.0
 -1.081258990000e-01  -1.682321474166e-02  0.0
 -1.062517986000e-01  -3.364644945000e-02  0.0
 -7.778175920000e-02  -9.192386270000e-02  0.0
 -6.788226403000e-02  -7.672107220000e-02  0.0
 -5.798276886000e-02  -6.151828170000e-02  0.0
 -8.652228117000e-02  -7.846192270500e-02  0.0
 -7.662278600000e-02  -6.325913220500e-02  0.0
 -9.526280314000e-02  -6.499998271000e-02  0.0
 -7.101409137000e-02  -4.349999130000e-02  0.0
 -8.863294498500e-02  -3.857322037500e-02  0.0
 -1.062517986000e-01  -3.364644945000e-02  0.0
 -8.313844725500e-02  -5.424998700500e-02  0.0
 -1.007573008700e-01  -4.932321608000e-02  0.0
 -9.526280314000e-02  -6.499998271000e-02  0.0
 -7.778175920000e-02  -9.192386270000e-02  0.0
 -8.652228117000e-02  -7.846192270500e-02  0.0
 -9.526280314000e-02  -6.499998271000e-02  0.0
 -9.639088065000e-02  -9.596193210000e-02  0.0
 -1.051314026200e-01  -8.249999210500e-02  0.0
 -1.150000021000e-01  -1.000000015000e-01  0.0
[...]
POINT_DATA 2244
SCALARS field1 double 1
LOOKUP_TABLE default
  3.019945831121e-03 
  1.330180436322e-01 
  2.630161414332e-01 
  1.313398492949e-03 
  1.313114962940e-01 
 -3.931488452232e-04 
  3.706080522781e-01 
  1.839013670809e-01 
 -2.805318116178e-03 
  1.864447718478e-01 
 -2.619133493035e-04 
  2.281491417571e-03 
  2.602688043941e-01 
  3.366323673299e-01 
  4.129959302658e-01 
  3.589333207723e-01 
  4.352968837082e-01 
  4.575978371506e-01 
  4.138073240034e-01 
  3.369572896630e-01 
  2.601072553226e-01 
  3.100792443234e-01 
  2.332292099830e-01 
  2.063511646433e-01 
  5.688641274648e-01 
  5.134783326362e-01 
  4.580925378077e-01 
  4.935189983737e-01 
  4.381332035451e-01 
  4.181738692826e-01 
 -2.891731024189e-02 
 -1.363853193056e-01 
 -2.438533283693e-01 
 -5.901312586867e-02 
 -1.664811349324e-01 
 -8.910894149545e-02 
  2.072199999876e-01 
  2.975567194467e-01 
  3.878934389059e-01 
  3.109333856961e-01 
  4.012701051552e-01 
  4.146467714046e-01 
  5.565860217033e-01 
  5.216618440735e-01 
  4.867376664436e-01 
  5.603191936004e-01 
  5.253950159706e-01 
  5.640523654975e-01 
  2.752757715864e-01 
  3.235781407273e-01 
  3.718805098682e-01 
  3.564137537050e-01 
  4.047161228459e-01 
  4.375517358236e-01 
 -4.041302641879e-04 
  1.379448282509e-01 
  2.762937867661e-01 
  1.001369067994e-01 
  2.384858653145e-01 
  2.006779438629e-01 
  3.833389057797e-01 
  4.097416657932e-01 
  4.361444258067e-01 
  4.555160391748e-01 
  4.819187991883e-01 
  5.276931725699e-01 
  4.339269485047e-01 
  4.091017789005e-01 
  3.842766092963e-01 
  3.545589410544e-01 
  3.297337714502e-01 
  2.751909336040e-01 
  5.853918816055e-01 
  5.567978141815e-01 
  5.282037467575e-01 
  5.128295556684e-01 
  4.842354882444e-01 
  4.402672297313e-01 
  3.860640493942e-01 
  4.560600890065e-01 
  5.260561286188e-01 
  4.006444555204e-01 
  4.706404951327e-01 
  4.152248616465e-01 
  5.856810483989e-01 
  5.121478941823e-01 
  4.386147399657e-01 
  5.885895322380e-01 
  5.150563780215e-01 
  5.914980160772e-01 
  2.744701607522e-01 
  3.312170923770e-01 
  3.879640240018e-01 
  2.399230019801e-01 
  2.966699336049e-01 
  2.053758432080e-01 
  1.587036871723e-03 
  4.435057239652e-03 
  7.283077607581e-03 
  2.682400865438e-01 
  2.710881069117e-01 
  5.348931362159e-01 
  5.685691451634e-01 
  4.922113710159e-01 
  4.158535968685e-01 
  5.468086645710e-01 
  4.704508904236e-01 
  5.250481839786e-01 
  5.899888862306e-01 
  5.773664074558e-01 
  5.647439286810e-01 
  6.064359022595e-01 
  5.938134234847e-01 
  6.228829182884e-01 
  5.884175201255e-01 
  5.232453153611e-01 
  4.580731105966e-01 
  5.770657344625e-01 
  5.118935296980e-01 
  5.657139487995e-01 
  5.917468259011e-01 
  6.075355002155e-01 
  6.233241745299e-01 
  6.240833638441e-01 
  6.398720381585e-01 
  6.564199017872e-01 
  6.232832677330e-01 
  5.967357139182e-01 
  5.701881601034e-01 
  5.854026358624e-01 
  5.588550820476e-01 
  5.475220039918e-01 
  5.192961453734e-01 
  5.715312298016e-01 
  6.237663142297e-01 
  5.293894551266e-01 
  5.816245395548e-01 
  5.394827648798e-01 
  6.173340499122e-01 
  6.256788876364e-01 
  6.340237253606e-01 
  6.373199777780e-01 
  6.456648155022e-01 
  6.573059056439e-01 
  5.692129189885e-01 
  5.565168094894e-01 
  5.438206999904e-01 
  5.572496056955e-01 
  5.445534961965e-01 
  5.452862924026e-01 
  4.849794726941e-01 
  5.312458313375e-01 
  5.775121899809e-01 
  2.681192328240e-01 
  3.143855914674e-01 
  5.125899295392e-02 
  5.090598064367e-01 
  5.300253720693e-01 
  5.509909377018e-01 
  5.664308498132e-01 
  5.873964154458e-01 
  6.238018931897e-01 
  5.470357319776e-01 
  5.581376839250e-01 
  5.692396358724e-01 
  5.386797462752e-01 
  5.497816982227e-01 
  5.303237605729e-01 
  2.019373444544e-01 
  3.002175232139e-01 
  3.984977019735e-01 
  2.686363120391e-01 
  3.669164907986e-01 
  3.353352796238e-01 
  3.809013034327e-01 
  4.584647621704e-01 
  5.360282209081e-01 
  4.450802746353e-01 
  5.226437333730e-01 
  5.092592458380e-01 
  5.131010566538e-01 
  4.291096862205e-01 
  3.451183157872e-01 
  4.525203536510e-01 
  3.685289832177e-01 
  3.919396506481e-01 
  3.802777586643e-01 
  4.469113434647e-01 
  5.135449282651e-01 
  4.595884027418e-01 
  5.262219875422e-01 
  5.388990468193e-01 
  5.850096983984e-01 
  6.070891982645e-01 
  6.291686981307e-01 
  5.671542513363e-01 
  5.892337512024e-01 
  5.492988042741e-01 
  5.124277454795e-01 
  5.266024253882e-01 
  5.407771052969e-01 
  5.333995239249e-01 
  5.475742038336e-01 
  5.543713023704e-01 
  5.792159197636e-01 
  5.624126349949e-01 
  5.456093502262e-01 
  5.537856249102e-01 
  5.369823401414e-01 
  5.283553300567e-01 
  3.927822728856e-01 
  3.020615735010e-01 
  2.113408741164e-01 
  3.791489919336e-01 
  2.884282925490e-01 
  3.655157109816e-01 
  5.910086354792e-01 
  5.144898314843e-01 
  4.379710274894e-01 
  4.819955541313e-01 
  4.054767501364e-01 
  3.729824727834e-01 
  1.520078858990e-02 
 -2.736605184014e-02 
 -6.993289227017e-02 
  3.244817007691e-01 
  2.819148603391e-01 
  6.337626129483e-01 
  6.075164687508e-01 
  5.401324928869e-01 
  4.727485170231e-01 
  6.344448991014e-01 
  5.670609232376e-01 
  6.613733294520e-01 
  6.042602083441e-01 
  5.965667671940e-01 
  5.888733260438e-01 
  4.890853729784e-01 
  4.813919318283e-01 
  3.739105376128e-01 
  5.815803206040e-01 
  6.591433135093e-01 
  7.367063064146e-01 
  6.044166274273e-01 
  6.819796203326e-01 
  6.272529342506e-01 
  7.406095100520e-01 
  6.619351043339e-01 
  5.832606986158e-01 
  6.706233598258e-01 
  5.919489541077e-01 
  6.006372095996e-01 
  8.410657828312e-01 
  7.920201607693e-01 
  7.429745387075e-01 
  7.178899676215e-01 
  6.688443455597e-01 
  5.947141524119e-01 
  7.473791108947e-01 
  6.870931385567e-01 
  6.268071662187e-01 
  7.488748117526e-01 
  6.885888394146e-01 
  7.503705126105e-01 
  5.910276975657e-01 
  6.020431546616e-01 
  6.130586117574e-01 
  7.183661129202e-01 
  7.293815700160e-01 
  8.457045282746e-01 
  6.070496371976e-01 
  4.915671627666e-01 
  3.760846883357e-01 
  5.398387937883e-01 
  4.243563193574e-01 
  4.726279503791e-01 
  9.047579072350e-01 
  8.769585527814e-01 
  8.491591983278e-01 
  7.603464156434e-01 
  7.325470611898e-01 
  6.159349240519e-01 
 -1.383199167422e-03 
  3.688384028899e-01 
  7.390600049471e-01 
 -7.486534226907e-03 
  3.627350678304e-01 
 -1.358986928639e-02 
  8.676617355531e-01 
  8.243752325414e-01 
  7.810887295297e-01 
  8.436049031155e-01 
  8.003184001038e-01 
  8.195480706780e-01 
  7.757517963525e-01 
  8.214319452472e-01 
  8.671120941419e-01 
  8.300780332441e-01 
  8.757581821388e-01 
  8.844042701357e-01 
  8.159061727650e-01 
  7.925320787767e-01 
  7.691579847884e-01 
  4.150475315786e-01 
  3.916734375903e-01 
  1.418889039225e-02 
  8.482805430471e-01 
  8.358839564809e-01 
  8.234873699147e-01 
  7.998310123703e-01 
  7.874344258041e-01 
  7.513814816936e-01 
  8.469859427850e-01 
  7.986399031757e-01 
  7.502938635665e-01 
  8.700385487803e-01 
  8.216925091711e-01 
  8.930911547756e-01 
  9.072751416136e-01 
  7.615753039317e-01 
  6.158754662499e-01 
  7.854202534904e-01 
  6.397204158086e-01 
  6.635653653673e-01 
  4.741335395441e-01 
  4.974188662925e-01 
  5.207041930409e-01 
  5.685139028948e-01 
  5.917992296432e-01 
  6.628942662455e-01 
  7.435981717016e-01 
  7.516366271993e-01 
  7.596750826970e-01 
  7.808823328955e-01 
  7.889207883932e-01 
  8.181664940894e-01 
 -1.172555248186e-03 
  1.747786656532e-01 
  3.507298865546e-01 
  8.724472248253e-03 
  1.846756931496e-01 
  1.862149974469e-02 
  3.444601998582e-01 
  4.252840770784e-01 
  5.061079542986e-01 
  4.483349874726e-01 
  5.291588646928e-01 
  5.522097750869e-01 
  4.786440215465e-01 
  2.406885703499e-01 
  2.733119153265e-03 
  2.414698075540e-01 
  3.514356357355e-03 
  4.295593561444e-03 
 -1.623454556796e-02 
  3.060148494238e-02 
  7.743751545272e-02 
  9.140578223443e-02 
  1.382418127448e-01 
  1.990461100368e-01 
  8.472366040607e-03 
 -3.532721964413e-03 
 -1.553780996943e-02 
  1.690734348948e-01 
  1.570683468898e-01 
  3.296745037490e-01 
  3.204147469735e-01 
  1.610765123646e-01 
  1.738277755608e-03 
  2.884580764122e-01 
  1.291198418033e-01 
  2.565014058509e-01 
  3.468795715480e-01 
  4.571017182606e-01 
  5.673238649731e-01 
  1.861721791655e-01 
  2.963943258781e-01 
  2.546478678300e-02 
 -2.225253538110e-02 
  8.530517876159e-02 
  1.928628929043e-01 
  1.523801422844e-01 
  2.599378564271e-01 
  3.270128199500e-01 
  7.452046047077e-03 
  8.554485077827e-03 
  9.656924108577e-03 
  4.129609662540e-01 
  4.140634052847e-01 
  8.184698864609e-01 
  1.380075149016e-02 
  3.912509184807e-01 
  7.687010854712e-01 
  7.148960700032e-03 
  3.845991276905e-01 
  4.971699099034e-04 
  5.096867020131e-01 
  2.542683185579e-01 
 -1.150064897330e-03 
  4.631757970947e-01 
  2.077574136395e-01 
  4.166648921763e-01 
  6.487740359898e-03 
  3.024441234918e-01 
  5.984005066237e-01 
  1.786133433448e-02 
  3.138177174664e-01 
  2.923492830906e-02 
  2.185353718502e-02 
  3.820151367873e-01 
  7.421767363895e-01 
  4.151007279412e-01 
  7.752623275435e-01 
  8.083479186974e-01 
  4.747864699120e-01 
  2.421078779846e-01 
  9.429286057194e-03 
  4.969574363735e-01 
  2.642788444461e-01 
  5.191284028350e-01 
  2.812725570453e-01 
  1.413097784781e-01 
  1.346999910933e-03 
  1.427402713487e-01 
  2.777492781523e-03 
  4.207985652112e-03 
  4.211842098539e-02 
  3.155753246300e-01 
  5.890322282745e-01 
  3.910177168894e-01 
  6.644746205340e-01 
  7.399170127934e-01 
  5.650888622026e-01 
  5.964772371828e-01 
  6.278656121630e-01 
  6.540272052971e-01 
  6.854155802773e-01 
  7.429655483916e-01 
  3.813433102861e-01 
  1.951572432049e-01 
  8.971176123824e-03 
  4.231994753008e-01 
  2.370134082197e-01 
  4.650556403155e-01 
  9.061144657914e-01 
  7.827514057090e-01 
  6.593883456267e-01 
  8.154580490796e-01 
  6.920949889973e-01 
  7.248016323678e-01 
  5.567001344671e-01 
  5.306153482492e-01 
  5.045305620313e-01 
  5.938541101144e-01 
  5.677693238965e-01 
  6.310080857618e-01 
  2.094925161181e-03 
  5.505701187826e-03 
  8.916477214471e-03 
  1.936057967512e-01 
  1.970165727779e-01 
  3.851166683413e-01 
  6.763283169767e-02 
  3.011312159157e-02 
 -7.406588514531e-03 
  3.114750113147e-02 
 -6.372208974633e-03 
 -5.337829434735e-03 
  5.973574768929e-01 
  6.148149539266e-01 
  6.322724309604e-01 
  5.797933977542e-01 
  5.972508747880e-01 
  5.622293186156e-01 
  6.347178976047e-01 
  6.445056066710e-01 
  6.542933157373e-01 
  6.464753416237e-01 
  6.562630506900e-01 
  6.582327856427e-01 
  6.533842036651e-01 
  6.221406150652e-01 
  5.908970264653e-01 
  6.209993575717e-01 
  5.897557689718e-01 
  5.886145114784e-01 
  5.918658069873e-01 
  6.220152201316e-01 
  6.521646332758e-01 
  6.112499892316e-01 
  6.413994023759e-01 
  6.306341714759e-01 
  5.876949211265e-01 
  5.899962490494e-01 
  5.922975769724e-01 
  5.233792124394e-01 
  5.256805403624e-01 
  4.590635037524e-01 
 -1.439052039286e-01 
 -1.543289293084e-01 
 -1.647526546882e-01 
 -2.091897786368e-01 
 -2.196135040166e-01 
 -2.744743533450e-01 
  6.354437594443e-01 
  5.785875537024e-01 
  5.217313479606e-01 
  5.948286403031e-01 
  5.379724345612e-01 
  5.542135211619e-01 
  6.356001815176e-01 
  6.283094754255e-01 
  6.210187693333e-01 
  5.809715213173e-01 
  5.736808152252e-01 
  5.263428611171e-01 
  3.925424132422e-01 
  4.736930803238e-01 
  5.548437474055e-01 
  4.548250244765e-01 
  5.359756915581e-01 
  5.171076357108e-01 
  5.289203978313e-01 
  4.641071530260e-01 
  3.992939082207e-01 
  4.429399093929e-01 
  3.781266645876e-01 
  3.569594209544e-01 
  5.536424114278e-01 
  5.347917763745e-01 
  5.159411413213e-01 
  5.589565231865e-01 
  5.401058881333e-01 
  5.642706349453e-01 
  5.158991969674e-01 
  5.325403050065e-01 
  5.491814130456e-01 
  4.547802415223e-01 
  4.714213495614e-01 
  3.936612860771e-01 
  5.931258800641e-01 
  5.772397496681e-01 
  5.613536192722e-01 
  6.196672754286e-01 
  6.037811450326e-01 
  6.462086707931e-01 
  5.587482330559e-01 
  5.600282518747e-01 
  5.613082706936e-01 
  5.784333176402e-01 
  5.797133364590e-01 
  5.981184022244e-01 
  4.003272416795e-01 
  3.807884240760e-01 
  3.612496064725e-01 
  3.102099339867e-01 
  2.906711163832e-01 
  2.200926262939e-01 
  3.933309611669e-01 
  4.531843175155e-01 
  5.130376738640e-01 
  3.753261357402e-01 
  4.351794920887e-01 
  3.573213103135e-01 
  5.103765555864e-01 
  4.466781016071e-01 
  3.829796476279e-01 
  4.355250030702e-01 
  3.718265490909e-01 
  3.606734505539e-01 
  5.964113026439e-01 
  5.820226131448e-01 
  5.676339236457e-01 
  5.727230043594e-01 
  5.583343148603e-01 
  5.490347060750e-01 
  4.584336730281e-01 
  4.528938912437e-01 
  4.473541094593e-01 
  3.595082275050e-01 
  3.539684457206e-01 
  2.605827819820e-01 
  4.594863092804e-01 
  5.269337117512e-01 
  5.943811142221e-01 
  4.552386451328e-01 
  5.226860476037e-01 
  4.509909809853e-01 
  2.585746118303e-01 
  2.571287754793e-01 
  2.556829391284e-01 
  1.290218729076e-01 
  1.275760365566e-01 
 -5.308660151520e-04 
  2.582155881218e-01 
  2.587803884669e-01 
  2.593451888119e-01 
  3.531266264703e-01 
  3.536914268154e-01 
  4.480376648188e-01 
  3.292375369392e-01 
  1.666239902552e-01 
  4.010443571221e-03 
  1.647162839495e-01 
  2.102737265514e-03 
  1.950309598073e-04 
  1.639271688977e-02 
  8.084524837434e-03 
 -2.236672149025e-04 
  2.632888423449e-01 
  2.549806502926e-01 
  5.101849678001e-01 
  4.480893433284e-01 
  4.344633195664e-01 
  4.208372958044e-01 
  3.536509472321e-01 
  3.400249234701e-01 
  2.592125511357e-01 
  4.484191997670e-01 
  2.263025378533e-01 
  4.185875939587e-03 
  2.402091181756e-01 
  1.809245626191e-02 
  3.199903658424e-02 
  5.455542387178e-01 
  5.670021598570e-01 
  5.884500809961e-01 
  5.133323895585e-01 
  5.347803106977e-01 
  4.811105403992e-01 
  5.863289399736e-01 
  5.672552507322e-01 
  5.481815614909e-01 
  5.765664941590e-01 
  5.574928049177e-01 
  5.668040483445e-01 
  4.169481821925e-01 
  4.501185984559e-01 
  4.832890147192e-01 
  3.704727594331e-01 
  4.036431756964e-01 
  3.239973366736e-01 
  4.802139136868e-01 
  4.491917357719e-01 
  4.181695578570e-01 
  5.119539831953e-01 
  4.809318052804e-01 
  5.436940527039e-01 
  3.254848457006e-01 
  4.064271285796e-01 
  4.873694114586e-01 
  3.808035840397e-01 
  4.617458669187e-01 
  4.361223223788e-01 
  4.205465726108e-01 
  3.706170238702e-01 
  3.206874751295e-01 
  3.394169211113e-01 
  2.894873723707e-01 
  2.582872696118e-01 
  5.866850993793e-01 
  5.848956434845e-01 
  5.831061875897e-01 
  5.343577331215e-01 
  5.325682772267e-01 
  4.820303668638e-01 
  5.430136906190e-01 
  4.818532952676e-01 
  4.206928999162e-01 
  4.953720611078e-01 
  4.342116657565e-01 
  4.477304315967e-01 
  5.941233837324e-01 
  5.679900129696e-01 
  5.418566422069e-01 
  5.209434865028e-01 
  4.948101157401e-01 
  4.477635892732e-01 
  3.299353054397e-01 
  3.773209834652e-01 
  4.247066614908e-01 
  1.660122023389e-01 
  2.133978803644e-01 
  2.089099238048e-03 
  5.563637603321e-01 
  5.372208183938e-01 
  5.180778764555e-01 
  6.005753168868e-01 
  5.814323749485e-01 
  6.447868734415e-01 
 -2.189467116899e-01 
 -2.297745046213e-01 
 -2.406022975526e-01 
 -3.147217528177e-01 
 -3.255495457490e-01 
 -4.104967939455e-01 
  7.180471871865e-02 
  3.168739641286e-02 
 -8.429925892925e-03 
  1.427006777305e-01 
  1.025833554247e-01 
  2.135966367423e-01 
  6.558483715803e-02 
  2.966556424294e-02 
 -6.253708672144e-03 
  3.049243784752e-02 
 -5.426835067565e-03 
 -4.599961462985e-03 
  2.190741515482e-01 
  1.094069467134e-01 
 -2.602581213610e-04 
  2.794133140043e-01 
  1.697461091695e-01 
  3.397524764604e-01 
  5.261058820132e-01 
  4.304546175420e-01 
  3.348033530709e-01 
  2.595200797890e-01 
  1.638688153179e-01 
 -7.065722435083e-03 
  5.457030582819e-01 
  6.029216191224e-01 
  6.601401799629e-01 
  5.381989559845e-01 
  5.954175168249e-01 
  5.306948536870e-01 
  5.341528443058e-01 
  5.356332145886e-01 
  5.371135848714e-01 
  4.396079370027e-01 
  4.410883072855e-01 
  3.450630296996e-01 
  2.996701486625e-03 
  1.099159010442e-01 
  2.168351006017e-01 
 -6.844278741382e-04 
  1.062347716834e-01 
 -4.365557234901e-03 
  4.039195421431e-01 
  3.109964878391e-01 
  2.180734335351e-01 
  3.766381903282e-01 
  2.837151360242e-01 
  3.493568385133e-01 
 -1.895280338676e-03 
  6.584848986835e-03 
  1.506497831234e-02 
  2.648479018962e-01 
  2.733280312217e-01 
  5.315910841311e-01 
  5.302018280940e-01 
  2.713993319664e-01 
  1.259683583891e-02 
  5.280970577822e-01 
  2.692945616547e-01 
  5.259922874705e-01 
  2.989915916170e-01 
  2.129299373606e-01 
  1.268682831041e-01 
  4.597403822410e-01 
  3.736787279846e-01 
  6.204891728651e-01 
  2.630782015041e-01 
  1.332705170526e-01 
  3.462832601040e-03 
  2.334590622824e-01 
  1.036513778309e-01 
  2.038399230607e-01 
  7.648626990908e-01 
  3.858051687233e-01 
  6.747638355722e-03 
  3.930342111328e-01 
  1.397668076523e-02 
  2.120572317473e-02 
  7.396891792914e-01 
  3.698510691625e-01 
  1.295903363945e-05 
  3.809597606489e-01 
  1.112165052005e-02 
  2.223034200646e-02 
  4.750961141231e-01 
  2.445102633922e-01 
  1.392441266119e-02 
  4.398853423780e-01 
  2.092994916470e-01 
  4.046745706328e-01 
  5.226296790329e-01 
  2.640687893933e-01 
  5.507899753646e-03 
  6.197603261984e-01 
  3.611994365588e-01 
  7.168909733639e-01 
  6.129760305567e-01 
  5.744999538904e-01 
  5.360238772241e-01 
  5.345842692683e-01 
  4.961081926020e-01 
  4.561925079799e-01 
  8.203686791571e-01 
  4.145518633027e-01 
  8.735047448390e-03 
  4.098583282472e-01 
  4.041512392893e-03 
 -6.520226626031e-04 
  6.545818025945e-01 
  6.901888293811e-01 
  7.257958561676e-01 
  7.153331633149e-01 
  7.509401901015e-01 
  7.760845240354e-01 
  7.142671123204e-01 
  6.889730195435e-01 
  6.636789267667e-01 
  6.245273216347e-01 
  5.992332288578e-01 
  5.347875309490e-01 
  6.046830739890e-01 
  5.198551697061e-01 
  4.350272654232e-01 
  5.947860152820e-01 
  5.099581109991e-01 
  5.848889565751e-01 
  4.386537751365e-01 
  4.621569769142e-01 
  4.856601786919e-01 
  5.112025710165e-01 
  5.347057727942e-01 
  5.837513668965e-01 
  5.942602041128e-01 
  5.904088176675e-01 
  5.865574312221e-01 
  6.839978060293e-01 
  6.801464195840e-01 
  7.737354079458e-01 
  7.747170995610e-01 
  8.196828830503e-01 
  8.646486665397e-01 
  6.827372840422e-01 
  7.277030675315e-01 
  5.907574685233e-01 
  7.769384509025e-01 
  7.565376407558e-01 
  7.361368306091e-01 
  7.994123618525e-01 
  7.790115517058e-01 
  8.218862728024e-01 
  6.463024114313e-01 
  7.069980916991e-01 
  7.676937719669e-01 
  6.164747248326e-01 
  6.771704051005e-01 
  5.866470382340e-01 
  8.148711355369e-01 
  7.998400327365e-01 
  7.848089299362e-01 
  8.463568470962e-01 
  8.313257442958e-01 
  8.778425586555e-01 
  8.193620786178e-01 
  7.887034777876e-01 
  7.580448769574e-01 
  4.256644660393e-01 
  3.950058652091e-01 
  3.196685346084e-02 
  6.227334343327e-01 
  7.468377522156e-01 
  8.709420700985e-01 
  7.658355973177e-01 
  8.899399152007e-01 
  9.089377603028e-01 
  8.701500621244e-01 
  7.439546066544e-01 
  6.177591511843e-01 
  7.282519988764e-01 
  6.020565434063e-01 
  5.863539356283e-01 
  5.049986178306e-01 
  5.564171031417e-01 
  6.078355884528e-01 
  5.869949328050e-01 
  6.384134181160e-01 
  6.689912477793e-01 
  6.073233446398e-01 
  5.556396058699e-01 
  5.039558670999e-01 
  5.185178955026e-01 
  4.668341567327e-01 
  4.297124463655e-01 
  8.878259947132e-01 
  8.834287377157e-01 
  8.790314807182e-01 
  8.334603879998e-01 
  8.290631310023e-01 
  7.790947812865e-01 
  8.196139816928e-01 
  8.418312406494e-01 
  8.640484996060e-01 
  7.976114338348e-01 
  8.198286927914e-01 
  7.756088859769e-01 
  1.175743543425e-02 
  3.981164234128e-01 
  7.844754113914e-01 
  4.129929425674e-01 
  7.993519305459e-01 
  8.142284497005e-01 