# vtk DataFile Version 2
NuDG++ 2D simulation
ASCII
DATASET UNSTRUCTURED_GRID

POINTS 2244 double
 -1.656250060000e-01  -2.000000030000e-01  0.0
 -1.828125045000e-01  -1.772221997500e-01  0.0
 -2.000000030000e-01  -1.544443965000e-01  0.0
 -1.828125045000e-01  -2.000000030000e-01  0.0
 -2.000000030000e-01  -1.772221997500e-01  0.0
 -2.000000030000e-01  -2.000000030000e-01  0.0
 -6.428571790000e-02  -1.700000018000e-01  0.0
 -8.058035746000e-02  -1.850000024000e-01  0.0
 -9.687499702000e-02  -2.000000030000e-01  0.0
 -6.339285895000e-02  -1.850000024000e-01  0.0
 -7.968749851000e-02  -2.000000030000e-01  0.0
 -6.250000000000e-02  -2.000000030000e-01  0.0
 -2.000000030000e-01  -1.544443965000e-01  0.0
 -1.750000045000e-01  -1.379364989500e-01  0.0
 -1.500000060000e-01  -1.214286014000e-01  0.0
 -2.000000030000e-01  -1.316666491500e-01  0.0
 -1.750000045000e-01  -1.151587516000e-01  0.0
 -2.000000030000e-01  -1.088889018000e-01  0.0
 -1.500000060000e-01  -1.214286014000e-01  0.0
 -1.750000045000e-01  -1.379364989500e-01  0.0
 -2.000000030000e-01  -1.544443965000e-01  0.0
 -1.500000060000e-01  -1.457143016000e-01  0.0
 -1.750000045000e-01  -1.622221991500e-01  0.0
 -1.500000060000e-01  -1.700000018000e-01  0.0
 -1.500000060000e-01  -7.285714149000e-02  0.0
 -1.750000045000e-01  -9.087302164500e-02  0.0
 -2.000000030000e-01  -1.088889018000e-01  0.0
 -1.500000060000e-01  -9.714287144500e-02  0.0
 -1.750000045000e-01  -1.151587516000e-01  0.0
 -1.500000060000e-01  -1.214286014000e-01  0.0
  1.832975030000e+00  -4.625000060000e-02  0.0
  1.853987515000e+00  -1.231250018000e-01  0.0
  1.875000000000e+00  -2.000000030000e-01  0.0
  1.916487515000e+00  -7.187499851000e-02  0.0
  1.937500000000e+00  -1.487499997100e-01  0.0
  2.000000000000e+00  -9.749999642000e-02  0.0
 -1.500000060000e-01  -1.700000018000e-01  0.0
 -1.360000037000e-01  -1.525000036000e-01  0.0
 -1.220000014000e-01  -1.350000054000e-01  0.0
 -1.500000060000e-01  -1.457143016000e-01  0.0
 -1.360000037000e-01  -1.282143034000e-01  0.0
 -1.500000060000e-01  -1.214286014000e-01  0.0
  2.849999964000e-01  -2.333333530000e-02  0.0
  2.837499976000e-01  -8.166666795000e-02  0.0
  2.824999988000e-01  -1.400000006000e-01  0.0
  3.174999952000e-01  -4.666666780000e-02  0.0
  3.162499964000e-01  -1.050000004500e-01  0.0
  3.499999940000e-01  -7.000000030000e-02  0.0
 -1.071429029000e-01  -1.700000018000e-01  0.0
 -8.571431040000e-02  -1.700000018000e-01  0.0
 -6.428571790000e-02  -1.700000018000e-01  0.0
 -9.857145324000e-02  -1.525000036000e-01  0.0
 -7.714286074000e-02  -1.525000036000e-01  0.0
 -9.000000358000e-02  -1.350000054000e-01  0.0
 -1.312499940000e-01  -2.000000030000e-01  0.0
 -1.191964484500e-01  -1.850000024000e-01  0.0
 -1.071429029000e-01  -1.700000018000e-01  0.0
 -1.406250000000e-01  -1.850000024000e-01  0.0
 -1.285714544500e-01  -1.700000018000e-01  0.0
 -1.500000060000e-01  -1.700000018000e-01  0.0
 -1.220000014000e-01  -1.350000054000e-01  0.0
 -1.060000024900e-01  -1.350000054000e-01  0.0
 -9.000000358000e-02  -1.350000054000e-01  0.0
 -1.185000017500e-01  -1.175000034500e-01  0.0
 -1.025000028400e-01  -1.175000034500e-01  0.0
 -1.150000021000e-01  -1.000000015000e-01  0.0
 -9.000000358000e-02  -1.350000054000e-01  0.0
 -1.060000024900e-01  -1.350000054000e-01  0.0
 -1.220000014000e-01  -1.350000054000e-01  0.0
 -9.857145324000e-02  -1.525000036000e-01  0.0
 -1.145714521500e-01  -1.525000036000e-01  0.0
 -1.071429029000e-01  -1.700000018000e-01  0.0
 -7.778175920000e-02  -9.192386270000e-02  0.0
 -9.639088065000e-02  -9.596193210000e-02  0.0
 -1.150000021000e-01  -1.000000015000e-01  0.0
 -8.389088139000e-02  -1.134619340500e-01  0.0
 -1.025000028400e-01  -1.175000034500e-01  0.0
 -9.000000358000e-02  -1.350000054000e-01  0.0
 -1.220000014000e-01  -1.350000054000e-01  0.0
 -1.185000017500e-01  -1.175000034500e-01  0.0
 -1.150000021000e-01  -1.000000015000e-01  0.0
 -1.360000037000e-01  -1.282143034000e-01  0.0
 -1.325000040500e-01  -1.107143014500e-01  0.0
 -1.500000060000e-01  -1.214286014000e-01  0.0
 -7.778175920000e-02  -9.192386270000e-02  0.0
 -8.389088139000e-02  -1.134619340500e-01  0.0
 -9.000000358000e-02  -1.350000054000e-01  0.0
 -6.639088876500e-02  -1.022535823500e-01  0.0
 -7.250001095500e-02  -1.237916537000e-01  0.0
 -5.500001833000e-02  -1.125833020000e-01  0.0
 -1.071429029000e-01  -1.700000018000e-01  0.0
 -1.145714521500e-01  -1.525000036000e-01  0.0
 -1.220000014000e-01  -1.350000054000e-01  0.0
 -1.285714544500e-01  -1.700000018000e-01  0.0
 -1.360000037000e-01  -1.525000036000e-01  0.0
 -1.500000060000e-01  -1.700000018000e-01  0.0
  6.250000093000e-03  -2.000000030000e-01  0.0
  4.062500153650e-02  -2.000000030000e-01  0.0
  7.500000298000e-02  -2.000000030000e-01  0.0
  1.383928512150e-02  -1.850000024000e-01  0.0
  4.821428656500e-02  -1.850000024000e-01  0.0
  2.142857015000e-02  -1.700000018000e-01  0.0
 -1.500000060000e-01  -7.285714149000e-02  0.0
 -1.500000060000e-01  -9.714287144500e-02  0.0
 -1.500000060000e-01  -1.214286014000e-01  0.0
 -1.325000040500e-01  -8.642857149500e-02  0.0
 -1.325000040500e-01  -1.107143014500e-01  0.0
 -1.150000021000e-01  -1.000000015000e-01  0.0
 -2.000000030000e-01  -6.333333254000e-02  0.0
 -1.750000045000e-01  -6.809523701500e-02  0.0
 -1.500000060000e-01  -7.285714149000e-02  0.0
 -1.750000045000e-01  -4.380952660000e-02  0.0
 -1.500000060000e-01  -4.857143107500e-02  0.0
 -1.500000060000e-01  -2.428572066000e-02  0.0
 -2.000000030000e-01  -6.333333254000e-02  0.0
 -2.000000030000e-01  -8.611111717000e-02  0.0
 -2.000000030000e-01  -1.088889018000e-01  0.0
 -1.750000045000e-01  -6.809523701500e-02  0.0
 -1.750000045000e-01  -9.087302164500e-02  0.0
 -1.500000060000e-01  -7.285714149000e-02  0.0
 -2.000000030000e-01  -6.333333254000e-02  0.0
 -1.750000045000e-01  -4.380952660000e-02  0.0
 -1.500000060000e-01  -2.428572066000e-02  0.0
 -2.000000030000e-01  -4.055555630500e-02  0.0
 -1.750000045000e-01  -2.103175036500e-02  0.0
 -2.000000030000e-01  -1.777778007000e-02  0.0
 -1.500000060000e-01  -2.428572066000e-02  0.0
 -1.500000060000e-01  -4.857143107500e-02  0.0
 -1.500000060000e-01  -7.285714149000e-02  0.0
 -1.281259023000e-01  -2.896608505500e-02  0.0
 -1.281259023000e-01  -5.325179547000e-02  0.0
 -1.062517986000e-01  -3.364644945000e-02  0.0
 -1.099999994000e-01   1.996667010000e-08  0.0
 -1.300000027000e-01  -1.214285034666e-02  0.0
 -1.500000060000e-01  -2.428572066000e-02  0.0
 -1.081258990000e-01  -1.682321474166e-02  0.0
 -1.281259023000e-01  -2.896608505500e-02  0.0
 -1.062517986000e-01  -3.364644945000e-02  0.0
 -1.500000060000e-01  -2.428572066000e-02  0.0
 -1.500000060000e-01   0.000000000000e+00  0.0
 -1.500000060000e-01   2.428572066000e-02  0.0
 -1.750000045000e-01  -2.103175036500e-02  0.0
 -1.750000045000e-01   3.253970295000e-03  0.0
 -2.000000030000e-01  -1.777778007000e-02  0.0
 -1.500000060000e-01  -7.285714149000e-02  0.0
 -1.226314045700e-01  -6.892856210000e-02  0.0
 -9.526280314000e-02  -6.499998271000e-02  0.0
 -1.281259023000e-01  -5.325179547000e-02  0.0
 -1.007573008700e-01  -4.932321608000e-02  0.0
 -1.062517986000e-01  -3.364644945000e-02  0.0
  3.499999940000e-01   1.400000006000e-01  0.0
  4.021931737500e-01   1.224999986500e-01  0.0
  4.543863535000e-01   1.049999967000e-01  0.0
  4.187500029500e-01   1.749999970000e-01  0.0
  4.709431827000e-01   1.574999950500e-01  0.0
  4.875000119000e-01   2.099999934000e-01  0.0
 -7.101409137000e-02  -4.349999130000e-02  0.0
 -8.313844725500e-02  -5.424998700500e-02  0.0
 -9.526280314000e-02  -6.499998271000e-02  0.0
 -6.449843011500e-02  -5.250913650000e-02  0.0
 -7.662278600000e-02  -6.325913220500e-02  0.0
 -5.798276886000e-02  -6.151828170000e-02  0.0
 -9.526280314000e-02  -6.499998271000e-02  0.0
 -1.226314045700e-01  -6.892856210000e-02  0.0
 -1.500000060000e-01  -7.285714149000e-02  0.0
 -1.051314026200e-01  -8.249999210500e-02  0.0
 -1.325000040500e-01  -8.642857149500e-02  0.0
 -1.150000021000e-01  -1.000000015000e-01  0.0
 -6.181925908000e-02  -1.656441018000e-02  0.0
 -7.051259093000e-02  -1.954082492500e-02  0.0
 -7.920592278000e-02  -2.251723967000e-02  0.0
 -5.862244405000e-02  -2.428220026000e-02  0.0
 -6.731577590000e-02  -2.725861500500e-02  0.0
 -5.542562902000e-02  -3.199999034000e-02  0.0
 -7.920592278000e-02  -2.251723967000e-02  0.0
 -9.272886069000e-02  -2.808184456000e-02  0.0
 -1.062517986000e-01  -3.364644945000e-02  0.0
 -7.511000707500e-02  -3.300861548500e-02  0.0
 -8.863294498500e-02  -3.857322037500e-02  0.0
 -7.101409137000e-02  -4.349999130000e-02  0.0
 -7.101409137000e-02  -4.349999130000e-02  0.0
 -6.321986019500e-02  -3.774999082000e-02  0.0
 -5.542562902000e-02  -3.199999034000e-02  0.0
 -7.511000707500e-02  -3.300861548500e-02  0.0
 -6.731577590000e-02  -2.725861500500e-02  0.0
 -7.920592278000e-02  -2.251723967000e-02  0.0
 -7.920592278000e-02  -2.251723967000e-02  0.0
 -9.460296109000e-02  -1.125860985166e-02  0.0
 -1.099999994000e-01   1.996667010000e-08  0.0
 -9.272886069000e-02  -2.808184456000e-02  0.0
 -1.081258990000e-01  -1.682321474166e-02  0.0
 -1.062517986000e-01  -3.364644945000e-02  0.0
 -7.778175920000e-02  -9.192386270000e-02  0.0
 -6.788226403000e-02  -7.672107220000e-02  0.0
 -5.798276886000e-02  -6.151828170000e-02  0.0
 -8.652228117000e-02  -7.846192270500e-02  0.0
 -7.662278600000e-02  -6.325913220500e-02  0.0
 -9.526280314000e-02  -6.499998271000e-02  0.0
 -7.101409137000e-02  -4.349999130000e-02  0.0
 -8.863294498500e-02  -3.857322037500e-02  0.0
 -1.062517986000e-01  -3.364644945000e-02  0.0
 -8.313844725500e-02  -5.424998700500e-02  0.0
 -1.007573008700e-01  -4.932321608000e-02  0.0
 -9.526280314000e-02  -6.499998271000e-02  0.0
 -7.778175920000e-02  -9.192386270000e-02  0.0
 -8.652228117000e-02  -7.846192270500e-02  0.0
 -9.526280314000e-02  -6.499998271000e-02  0.0
 -9.639088065000e-02  -9.596193210000e-02  0.0
 -1.051314026200e-01  -8.249999210500e-02  0.0
 -1.150000021000e-01  -1.000000015000e-01  0.0
[...]
POINT_DATA 2244
SCALARS field1 double 1
LOOKUP_TABLE default
  2.758264614018e-03 
  8.733393366234e-02 
  1.719096027107e-01 
  1.369537020222e-03 
  8.594520606855e-02 
 -1.919057357343e-05 
  2.820409420090e-01 
  1.405048287267e-01 
 -1.031284555691e-03 
  1.419878318220e-01 
  4.517185396704e-04 
  1.934721635032e-03 
  1.697227974233e-01 
  2.196630466007e-01 
  2.696032957780e-01 
  2.338397085694e-01 
  2.837799577467e-01 
  2.979566197154e-01 
  2.709932343840e-01 
  2.201990002496e-01 
  1.694047661153e-01 
  2.058578779961e-01 
  1.550636438617e-01 
  1.407225216082e-01 
  3.695355035618e-01 
  3.339093092565e-01 
  2.982831149511e-01 
  3.214891068900e-01 
  2.858629125847e-01 
  2.734427102182e-01 
  2.954921262427e-01 
  1.454378555089e-01 
 -4.616415224838e-03 
  3.040984875094e-01 
  1.540442167756e-01 
  3.127048487760e-01 
  1.410959448006e-01 
  2.006191873496e-01 
  2.601424298985e-01 
  2.067001459742e-01 
  2.662233885232e-01 
  2.723043471479e-01 
  3.399323717091e-01 
  3.450589816820e-01 
  3.501855916548e-01 
  3.460958752235e-01 
  3.512224851964e-01 
  3.522593787379e-01 
  2.039920689464e-01 
  2.422488985634e-01 
  2.805057281804e-01 
  2.487124740304e-01 
  2.869693036475e-01 
  2.934328791145e-01 
  3.444027906208e-04 
  1.021624255183e-01 
  2.039804482459e-01 
  6.835086578849e-02 
  1.701688885161e-01 
  1.363573287864e-01 
  2.568911163117e-01 
  2.735479845847e-01 
  2.902048528578e-01 
  2.989732191088e-01 
  3.156300873819e-01 
  3.410553219059e-01 
  2.909409234971e-01 
  2.740038846926e-01 
  2.570668458881e-01 
  2.475260113414e-01 
  2.305889725369e-01 
  2.041110991856e-01 
  3.769873186522e-01 
  3.587089916956e-01 
  3.404306647390e-01 
  3.349600996489e-01 
  3.166817726923e-01 
  2.929328806455e-01 
  2.581946679578e-01 
  3.001176565303e-01 
  3.420406451027e-01 
  2.660642432292e-01 
  3.079872318017e-01 
  2.739338185007e-01 
  3.772515626454e-01 
  3.350516153959e-01 
  2.928516681463e-01 
  3.851536585516e-01 
  3.429537113020e-01 
  3.930557544577e-01 
  2.024650098135e-01 
  2.311741149966e-01 
  2.598832201798e-01 
  1.709324047078e-01 
  1.996415098909e-01 
  1.393997996020e-01 
  1.557321785265e-03 
  2.898426969340e-03 
  4.239532153416e-03 
  1.933382075134e-01 
  1.946793126975e-01 
  3.851190932416e-01 
  3.690978396300e-01 
  3.215877534713e-01 
  2.740776673126e-01 
  3.556884227686e-01 
  3.081783366098e-01 
  3.422790059071e-01 
  3.850964718494e-01 
  3.757972594445e-01 
  3.664980470397e-01 
  3.948711107896e-01 
  3.855718983847e-01 
  4.046457497298e-01 
  3.841678269552e-01 
  3.416692754708e-01 
  2.991707239864e-01 
  3.758000919250e-01 
  3.333015404406e-01 
  3.674323568948e-01 
  3.863247559644e-01 
  3.955897343750e-01 
  4.048547127856e-01 
  4.074331256234e-01 
  4.166981040340e-01 
  4.285414952824e-01 
  4.049812317880e-01 
  3.872060880714e-01 
  3.694309443548e-01 
  3.759428494575e-01 
  3.581677057410e-01 
  3.469044671271e-01 
  3.238070752858e-01 
  3.645630817146e-01 
  4.053190881434e-01 
  3.335011665893e-01 
  3.742571730180e-01 
  3.431952578927e-01 
  4.007449667708e-01 
  4.049047429345e-01 
  4.090645190982e-01 
  4.149424415009e-01 
  4.191022176646e-01 
  4.291399162310e-01 
  3.684316636261e-01 
  3.571723331308e-01 
  3.459130026355e-01 
  3.570429163937e-01 
  3.457835858984e-01 
  3.456541691613e-01 
  3.419670099831e-01 
  3.758882953335e-01 
  4.098095806839e-01 
  1.999127638720e-01 
  2.338340492224e-01 
  5.785851776095e-02 
  3.111842853694e-01 
  3.317274044573e-01 
  3.522705235452e-01 
  3.496298472493e-01 
  3.701729663373e-01 
  3.880754091293e-01 
  3.472281261863e-01 
  3.579644997460e-01 
  3.687008733058e-01 
  3.453864161377e-01 
  3.561227896974e-01 
  3.435447060891e-01 
  1.179161533189e-01 
  1.816072133860e-01 
  2.452982734530e-01 
  1.538597446648e-01 
  2.175508047318e-01 
  1.898033360107e-01 
  2.375875246919e-01 
  2.897943480410e-01 
  3.420011713901e-01 
  2.743703134712e-01 
  3.265771368203e-01 
  3.111531022506e-01 
  3.111741582671e-01 
  2.524887787083e-01 
  1.938033991495e-01 
  2.766403663419e-01 
  2.179549867831e-01 
  2.421065744167e-01 
  2.365086412531e-01 
  2.783051781345e-01 
  3.201017150159e-01 
  2.897381515687e-01 
  3.315346884500e-01 
  3.429676618842e-01 
  3.780083468024e-01 
  3.846010364317e-01 
  3.911937260610e-01 
  3.642926371250e-01 
  3.708853267543e-01 
  3.505769274476e-01 
  3.133426454961e-01 
  3.283419606176e-01 
  3.433412757390e-01 
  3.331694867165e-01 
  3.481688018380e-01 
  3.529963279369e-01 
  3.742145121321e-01 
  3.609973989365e-01 
  3.477802857409e-01 
  3.576106582966e-01 
  3.443935451010e-01 
  3.410068044611e-01 
  2.425872597314e-01 
  1.815401540015e-01 
  1.204930482717e-01 
  2.291893833251e-01 
  1.681422775953e-01 
  2.157915069189e-01 
  3.917021520277e-01 
  3.426557572550e-01 
  2.936093624823e-01 
  3.366731410147e-01 
  2.876267462420e-01 
  2.816441300018e-01 
  2.939600367365e-01 
  3.066969433702e-01 
  3.194338500040e-01 
  3.041073946865e-01 
  3.168443013202e-01 
  3.142547526364e-01 
  4.147207512629e-01 
  3.822473573880e-01 
  3.497739635131e-01 
  4.335543425626e-01 
  4.010809486878e-01 
  4.523879338624e-01 
  4.113440264926e-01 
  4.004865358572e-01 
  3.896290452218e-01 
  3.467320646807e-01 
  3.358745740453e-01 
  2.821201028688e-01 
  3.765795159457e-01 
  4.180359731707e-01 
  4.594924303956e-01 
  3.834775379381e-01 
  4.249339951631e-01 
  3.903755599305e-01 
  4.616114120346e-01 
  4.191597716841e-01 
  3.767081313336e-01 
  4.292833752381e-01 
  3.868317348876e-01 
  3.969553384416e-01 
  5.259333903272e-01 
  4.947816933152e-01 
  4.636299963031e-01 
  4.598389504994e-01 
  4.286872534874e-01 
  3.937445106717e-01 
  4.184917663288e-01 
  4.040192245511e-01 
  3.895466827733e-01 
  4.418369426850e-01 
  4.273644009072e-01 
  4.651821190411e-01 
  3.908264496209e-01 
  4.033181843115e-01 
  4.158099190022e-01 
  4.593593363036e-01 
  4.718510709943e-01 
  5.278922229864e-01 
  4.138488621850e-01 
  3.485659555610e-01 
  2.832830489369e-01 
  3.814102829725e-01 
  3.161273763484e-01 
  3.489717037599e-01 
  5.618511566152e-01 
  5.458343978596e-01 
  5.298176391040e-01 
  4.903073729227e-01 
  4.742906141671e-01 
  4.187635892301e-01 
  1.243808818094e-03 
  2.056614246941e-01 
  4.100790405700e-01 
 -1.748957789042e-03 
  2.026686580869e-01 
 -4.741724396178e-03 
  5.379672353996e-01 
  4.813384124450e-01 
  4.247095894903e-01 
  4.944264374289e-01 
  4.377976144742e-01 
  4.508856394581e-01 
  4.223938235251e-01 
  4.801736279615e-01 
  5.379534323979e-01 
  4.877023602447e-01 
  5.454821646811e-01 
  5.530108969643e-01 
  4.494829938820e-01 
  4.359635361397e-01 
  4.224440783973e-01 
  2.292881632083e-01 
  2.157687054660e-01 
  9.093332534624e-03 
  5.293078986387e-01 
  4.915559985050e-01 
  4.538040983713e-01 
  4.979392885988e-01 
  4.601873884652e-01 
  4.665706785590e-01 
  5.184252413766e-01 
  4.646631782042e-01 
  4.109011150317e-01 
  5.372153434825e-01 
  4.834532803100e-01 
  5.560054455884e-01 
  5.610922829150e-01 
  4.903545175477e-01 
  4.196167521804e-01 
  5.051646837640e-01 
  4.344269183966e-01 
  4.492370846129e-01 
  3.503524327442e-01 
  3.636997968042e-01 
  3.770471608643e-01 
  4.017026339513e-01 
  4.150499980113e-01 
  4.530528351584e-01 
  4.165311827377e-01 
  4.432612026043e-01 
  4.699912224709e-01 
  4.341309813429e-01 
  4.608610012095e-01 
  4.517307799482e-01 
 -1.598421328575e-03 
  9.811026630369e-02 
  1.978189539360e-01 
  4.217524634912e-03 
  1.039262122672e-01 
  1.003347059840e-02 
  1.947934361341e-01 
  2.510497274641e-01 
  3.073060187941e-01 
  2.558894665315e-01 
  3.121457578614e-01 
  3.169854969288e-01 
  3.125931211325e-01 
  1.595904528685e-01 
  6.587784604405e-03 
  1.560511780882e-01 
  3.048509824122e-03 
 -4.907649561615e-04 
 -7.278355767484e-03 
  1.749663024792e-02 
  4.227161626333e-02 
  5.428498546041e-02 
  7.905997147581e-02 
  1.158483266883e-01 
  2.901671835905e-03 
 -2.636891679626e-03 
 -8.175455195158e-03 
  9.449564659007e-02 
  8.895708307454e-02 
  1.860896213442e-01 
  2.318953094770e-01 
  1.164565167419e-01 
  1.017724006863e-03 
  2.010457773425e-01 
  8.560698460743e-02 
  1.701962452080e-01 
  1.961847390252e-01 
  2.604780282151e-01 
  3.247713174051e-01 
  1.049474309424e-01 
  1.692407201324e-01 
  1.371012285971e-02 
 -1.090079933555e-02 
  5.171877129149e-02 
  1.143383419185e-01 
  8.721825884064e-02 
  1.498378294677e-01 
  1.853373170168e-01 
  3.446009260245e-03 
  4.142877147783e-03 
  4.839745035320e-03 
  2.279704532853e-01 
  2.286673211729e-01 
  4.524948973104e-01 
  7.809845003186e-03 
  2.158927550809e-01 
  4.239756651586e-01 
  4.695518975068e-03 
  2.127784290528e-01 
  1.581192946949e-03 
  3.694049664044e-01 
  1.869501598171e-01 
  4.495353229800e-03 
  3.366569079949e-01 
  1.542021014076e-01 
  3.039088495854e-01 
  3.226189275810e-03 
  1.710923889003e-01 
  3.389585885249e-01 
  8.028885946901e-03 
  1.758950855714e-01 
  1.283158261799e-02 
  1.144151305676e-02 
  2.141385313700e-01 
  4.168355496833e-01 
  2.296873384330e-01 
  4.323843567463e-01 
  4.479331638093e-01 
  3.517694128250e-01 
  1.803255193427e-01 
  8.881625860330e-03 
  3.641162078826e-01 
  1.926723144003e-01 
  3.764630029403e-01 
  2.082255121740e-01 
  1.044873956561e-01 
  7.492791382556e-04 
  1.059552729899e-01 
  2.217156472021e-03 
  3.685033805787e-03 
  1.980392898815e-02 
  1.768740624211e-01 
  3.339441958540e-01 
  2.176916554155e-01 
  3.747617888484e-01 
  4.155793818429e-01 
  3.235853304364e-01 
  3.569552197526e-01 
  3.903251090687e-01 
  3.703421636253e-01 
  4.037120529414e-01 
  4.170989968141e-01 
  2.880403911694e-01 
  1.481941102295e-01 
  8.347829289665e-03 
  3.161453650192e-01 
  1.762990840793e-01 
  3.442503388690e-01 
  5.584652455353e-01 
  5.031265494814e-01 
  4.477878534275e-01 
  5.137438594324e-01 
  4.584051633786e-01 
  4.690224733296e-01 
  3.185181670625e-01 
  3.125477153491e-01 
  3.065772636357e-01 
  3.548065543990e-01 
  3.488361026856e-01 
  3.910949417355e-01 
  1.508367084889e-03 
  4.181193005758e-03 
  6.854018926627e-03 
  1.466773502717e-01 
  1.493501761926e-01 
  2.918463334586e-01 
  3.729567336964e-02 
  1.700199351936e-02 
 -3.291686330916e-03 
  1.689514097932e-02 
 -3.398538870959e-03 
 -3.505391411002e-03 
  3.901305915346e-01 
  3.992973896375e-01 
  4.084641877403e-01 
  3.721617332573e-01 
  3.813285313602e-01 
  3.541928749801e-01 
  4.101855549384e-01 
  4.188683026378e-01 
  4.275510503371e-01 
  4.200287282029e-01 
  4.287114759023e-01 
  4.298719014674e-01 
  4.261326036644e-01 
  4.061120920215e-01 
  3.860915803785e-01 
  4.053409450643e-01 
  3.853204334214e-01 
  3.845492864643e-01 
  3.863253901203e-01 
  4.058667502458e-01 
  4.254081103713e-01 
  3.969462216107e-01 
  4.164875817362e-01 
  4.075670531010e-01 
  3.837324769401e-01 
  3.858208258614e-01 
  3.879091747827e-01 
  3.417959068210e-01 
  3.438842557423e-01 
  2.998593367018e-01 
 -1.990506378950e-03 
 -2.005476272882e-02 
 -3.811901907870e-02 
  1.410985481225e-01 
  1.230342917726e-01 
  2.841876026240e-01 
  4.102680003849e-01 
  3.675535407776e-01 
  3.248390811703e-01 
  3.800684265086e-01 
  3.373539669013e-01 
  3.498688526323e-01 
  4.096938159136e-01 
  4.064291645539e-01 
  4.031645131943e-01 
  3.685802645178e-01 
  3.653156131581e-01 
  3.274667131219e-01 
  2.373607740962e-01 
  2.934863398946e-01 
  3.496119056931e-01 
  2.797072949965e-01 
  3.358328607949e-01 
  3.220538158968e-01 
  3.257116927073e-01 
  2.827447674771e-01 
  2.397778422468e-01 
  2.654912774537e-01 
  2.225243522234e-01 
  2.052708622000e-01 
  3.484417351275e-01 
  3.342304643364e-01 
  3.200191935453e-01 
  3.522367709857e-01 
  3.380255001946e-01 
  3.560318068439e-01 
  3.195552072962e-01 
  3.331680720465e-01 
  3.467809367968e-01 
  2.789385588448e-01 
  2.925514235951e-01 
  2.383219103933e-01 
  3.798735817309e-01 
  3.667739440126e-01 
  3.536743062943e-01 
  3.922368162213e-01 
  3.791371785030e-01 
  4.046000507118e-01 
  3.522219932247e-01 
  3.527412075768e-01 
  3.532604219288e-01 
  3.714314485606e-01 
  3.719506629127e-01 
  3.906409038965e-01 
  2.407494332908e-01 
  2.275312181380e-01 
  2.143130029852e-01 
  1.807345642989e-01 
  1.675163491461e-01 
  1.207196953070e-01 
  2.376166473147e-01 
  2.791615750290e-01 
  3.207065027434e-01 
  2.257397368976e-01 
  2.672846646120e-01 
  2.138628264805e-01 
  3.192024062144e-01 
  2.783182088244e-01 
  2.374340114343e-01 
  2.671456543532e-01 
  2.262614569631e-01 
  2.150889024920e-01 
  3.898248565504e-01 
  3.727649682069e-01 
  3.557050798635e-01 
  3.741539856267e-01 
  3.570940972832e-01 
  3.584831147030e-01 
  2.987149844264e-01 
  2.936193855335e-01 
  2.885237866405e-01 
  2.344080302811e-01 
  2.293124313881e-01 
  1.701010761358e-01 
  2.995332490533e-01 
  3.445388834901e-01 
  3.895445179269e-01 
  2.955154660518e-01 
  3.405211004886e-01 
  2.914976830503e-01 
  1.690617714961e-01 
  1.712781164369e-01 
  1.734944613776e-01 
  8.475226890006e-02 
  8.696861384083e-02 
  4.427663040253e-04 
  1.747989950441e-01 
  1.720248676362e-01 
  1.692507402284e-01 
  2.321389619854e-01 
  2.293648345775e-01 
  2.894789289267e-01 
  2.433683627123e-01 
  1.250092168666e-01 
  6.650071020930e-03 
  1.211661891969e-01 
  2.807043351181e-03 
 -1.035984318568e-03 
  2.848976321162e-02 
  1.564490363992e-02 
  2.800044068227e-03 
  1.959304700144e-01 
  1.830856104427e-01 
  3.633711768171e-01 
  2.909097898023e-01 
  2.825048560451e-01 
  2.740999222880e-01 
  2.327753869083e-01 
  2.243704531512e-01 
  1.746409840144e-01 
  3.274290258461e-01 
  1.628212850787e-01 
 -1.786455688741e-03 
  1.759228121579e-01 
  1.131507139045e-02 
  2.441659846964e-02 
  3.558906350152e-01 
  3.661437292619e-01 
  3.763968235086e-01 
  3.354226447552e-01 
  3.456757390019e-01 
  3.149546544952e-01 
  3.754182418541e-01 
  3.662971953792e-01 
  3.571761489043e-01 
  3.656307154681e-01 
  3.565096689932e-01 
  3.558431890822e-01 
  2.694182901384e-01 
  2.934675522665e-01 
  3.175168143947e-01 
  2.522060467811e-01 
  2.762553089093e-01 
  2.349938034239e-01 
  3.138428023174e-01 
  2.928358731922e-01 
  2.718289440669e-01 
  3.347852948500e-01 
  3.137783657248e-01 
  3.557277873827e-01 
  2.387990840660e-01 
  2.791016332731e-01 
  3.194041824803e-01 
  2.773877327717e-01 
  3.176902819789e-01 
  3.159763814775e-01 
  2.728658401882e-01 
  2.515904559202e-01 
  2.303150716521e-01 
  2.226658807414e-01 
  2.013904964733e-01 
  1.724659212946e-01 
  3.756128087924e-01 
  3.811491120020e-01 
  3.866854152116e-01 
  3.455939165541e-01 
  3.511302197637e-01 
  3.155750243158e-01 
  3.565740693835e-01 
  3.150957190435e-01 
  2.736173687035e-01 
  3.240268117707e-01 
  2.825484614307e-01 
  2.914795541579e-01 
  3.890024428041e-01 
  3.726314654108e-01 
  3.562604880176e-01 
  3.400962674485e-01 
  3.237252900553e-01 
  2.911900920930e-01 
  2.436697677416e-01 
  2.768749777966e-01 
  3.100801878517e-01 
  1.258155109447e-01 
  1.590207209997e-01 
  7.961254147790e-03 
  3.523908107859e-01 
  3.370758461707e-01 
  3.217608815555e-01 
  3.778338416596e-01 
  3.625188770444e-01 
  4.032768725332e-01 
  5.883260401092e-02 
  1.712164272115e-01 
  2.836002504120e-01 
  1.238724964735e-01 
  2.362563196741e-01 
  1.889123889361e-01 
  4.011423119321e-02 
  1.825554767017e-02 
 -3.603135852876e-03 
  7.969993230384e-02 
  5.784124878080e-02 
  1.192856334145e-01 
  3.655123432758e-02 
  1.627185992703e-02 
 -4.007514473515e-03 
  1.731984877419e-02 
 -2.959525626356e-03 
 -1.911536779197e-03 
  1.213348165289e-01 
  6.130036347170e-02 
  1.265910414490e-03 
  1.596099164980e-01 
  9.957546344077e-02 
  1.978850164671e-01 
  2.989151919436e-01 
  2.482980105263e-01 
  1.976808291090e-01 
  1.481675320511e-01 
  9.755035063379e-02 
 -2.580127841387e-03 
  3.071923068745e-01 
  3.580151507241e-01 
  4.088379945737e-01 
  3.170213862858e-01 
  3.678442301354e-01 
  3.268504656970e-01 
  3.028575006937e-01 
  3.163328337041e-01 
  3.298081667146e-01 
  2.521712750694e-01 
  2.656466080798e-01 
  2.014850494450e-01 
  2.110022556356e-03 
  6.148148902486e-02 
  1.208529554934e-01 
 -5.917455181022e-05 
  5.931229191669e-02 
 -2.228371659976e-03 
  2.421019954524e-01 
  1.813848338814e-01 
  1.206676723105e-01 
  2.219581172416e-01 
  1.612409556707e-01 
  2.018142390309e-01 
 -1.138044131779e-03 
  2.478557999073e-03 
  6.095160129925e-03 
  1.499311433533e-01 
  1.535477454841e-01 
  3.010003308383e-01 
  3.815465839771e-01 
  1.951582234702e-01 
  8.769862963404e-03 
  3.736696605545e-01 
  1.872813000477e-01 
  3.657927371320e-01 
  2.623337600514e-01 
  1.894625822664e-01 
  1.165914044813e-01 
  3.371681179075e-01 
  2.642969401224e-01 
  4.120024757636e-01 
  1.716974752052e-01 
  8.729940104437e-02 
  2.901326883520e-03 
  1.550344963352e-01 
  7.063642217434e-02 
  1.383715174652e-01 
  4.306234438390e-01 
  2.167772705509e-01 
  2.931097262801e-03 
  2.204042867238e-01 
  6.558113435693e-03 
  1.018512960858e-02 
  4.190507517950e-01 
  2.091777320352e-01 
 -6.952877246275e-04 
  2.140762212101e-01 
  4.203201450320e-03 
  9.101690625267e-03 
  3.138791840351e-01 
  1.595771043582e-01 
  5.275024681240e-03 
  2.906819433201e-01 
  1.363798636431e-01 
  2.674847026050e-01 
  2.976084717662e-01 
  1.500981105503e-01 
  2.587749334321e-03 
  3.533033562535e-01 
  2.057929950376e-01 
  4.089982407408e-01 
  3.506095555253e-01 
  3.364893395209e-01 
  3.223691235166e-01 
  3.451638264496e-01 
  3.310436104453e-01 
  3.397180973740e-01 
  4.587959537048e-01 
  2.317037054103e-01 
  4.611457115839e-03 
  2.304414491905e-01 
  3.349200896001e-03 
  2.086944676163e-03 
  4.065441470973e-01 
  4.090781417312e-01 
  4.116121363650e-01 
  4.425092164244e-01 
  4.450432110582e-01 
  4.784742857514e-01 
  4.069205226341e-01 
  4.086599670808e-01 
  4.103994115276e-01 
  3.547469312699e-01 
  3.564863757167e-01 
  3.025733399058e-01 
  4.082161987750e-01 
  3.598971907710e-01 
  3.115781827671e-01 
  3.974077188878e-01 
  3.490887108838e-01 
  3.865992390006e-01 
  3.151612416376e-01 
  3.168922797897e-01 
  3.186233179418e-01 
  3.504018063624e-01 
  3.521328445145e-01 
  3.856423710872e-01 
  3.925860415583e-01 
  3.845561299529e-01 
  3.765262183476e-01 
  4.354493899243e-01 
  4.274194783189e-01 
  4.783127382903e-01 
  4.786559633233e-01 
  5.069255715590e-01 
  5.351951797947e-01 
  4.351965403246e-01 
  4.634661485603e-01 
  3.917371173258e-01 
  4.784427158149e-01 
  4.476147226219e-01 
  4.167867294290e-01 
  4.670634405365e-01 
  4.362354473435e-01 
  4.556841652581e-01 
  4.048965865524e-01 
  4.402500339411e-01 
  4.756034813298e-01 
  3.912016935670e-01 
  4.265551409557e-01 
  3.775068005815e-01 
  4.532650885554e-01 
  4.410659852830e-01 
  4.288668820106e-01 
  4.971061277386e-01 
  4.849070244662e-01 
  5.409471669219e-01 
  4.557762681038e-01 
  4.410630176253e-01 
  4.263497671468e-01 
  2.358859147840e-01 
  2.211726643055e-01 
  1.599556146416e-02 
  4.202279776105e-01 
  4.790834737894e-01 
  5.379389699683e-01 
  4.890420668023e-01 
  5.478975629812e-01 
  5.578561559941e-01 
  5.377171702956e-01 
  4.770346073020e-01 
  4.163520443084e-01 
  4.632545733295e-01 
  4.025720103358e-01 
  3.887919763633e-01 
  3.682349323605e-01 
  3.899242720040e-01 
  4.116136116475e-01 
  4.122935992932e-01 
  4.339829389367e-01 
  4.563522662259e-01 
  4.103748370162e-01 
  3.886895313477e-01 
  3.670042256791e-01 
  3.592928583695e-01 
  3.376075527009e-01 
  3.082108797227e-01 
  5.486337884754e-01 
  5.450801960427e-01 
  5.415266036101e-01 
  4.875126565614e-01 
  4.839590641287e-01 
  4.263915246474e-01 
  4.546680813551e-01 
  4.945795018715e-01 
  5.344909223878e-01 
  4.660705891068e-01 
  5.059820096232e-01 
  4.774730968585e-01 
  8.782951256786e-03 
  2.183904864197e-01 
  4.279980215825e-01 
  2.320387408028e-01 
  4.416462759657e-01 
  4.552945303488e-01 