# vtk DataFile Version 2
NuDG++ 2D simulation
ASCII
DATASET UNSTRUCTURED_GRID

POINTS 2244 double
 -1.656250060000e-01  -2.000000030000e-01  0.0
 -1.828125045000e-01  -1.772221997500e-01  0.0
 -2.000000030000e-01  -1.544443965000e-01  0.0
 -1.828125045000e-01  -2.000000030000e-01  0.0
 -2.000000030000e-01  -1.772221997500e-01  0.0
 -2.000000030000e-01  -2.000000030000e-01  0.0
 -6.428571790000e-02  -1.700000018000e-01  0.0
 -8.058035746000e-02  -1.850000024000e-01  0.0
 -9.687499702000e-02  -2.000000030000e-01  0.0
 -6.339285895000e-02  -1.850000024000e-01  0.0
 -7.968749851000e-02  -2.000000030000e-01  0.0
 -6.250000000000e-02  -2.000000030000e-01  0.0
 -2.000000030000e-01  -1.544443965000e-01  0.0
 -1.750000045000e-01  -1.379364989500e-01  0.0
 -1.500000060000e-01  -1.214286014000e-01  0.0
 -2.000000030000e-01  -1.316666491500e-01  0.0
 -1.750000045000e-01  -1.151587516000e-01  0.0
 -2.000000030000e-01  -1.088889018000e-01  0.0
 -1.500000060000e-01  -1.214286014000e-01  0.0
 -1.750000045000e-01  -1.379364989500e-01  0.0
 -2.000000030000e-01  -1.544443965000e-01  0.0
 -1.500000060000e-01  -1.457143016000e-01  0.0
 -1.750000045000e-01  -1.622221991500e-01  0.0
 -1.500000060000e-01  -1.700000018000e-01  0.0
 -1.500000060000e-01  -7.285714149000e-02  0.0
 -1.750000045000e-01  -9.087302164500e-02  0.0
 -2.000000030000e-01  -1.088889018000e-01  0.0
 -1.500000060000e-01  -9.714287144500e-02  0.0
 -1.750000045000e-01  -1.151587516000e-01  0.0
 -1.500000060000e-01  -1.214286014000e-01  0.0
  1.832975030000e+00  -4.625000060000e-02  0.0
  1.853987515000e+00  -1.231250018000e-01  0.0
  1.875000000000e+00  -2.000000030000e-01  0.0
  1.916487515000e+00  -7.187499851000e-02  0.0
  1.937500000000e+00  -1.487499997100e-01  0.0
  2.000000000000e+00  -9.749999642000e-02  0.0
 -1.500000060000e-01  -1.700000018000e-01  0.0
 -1.360000037000e-01  -1.525000036000e-01  0.0
 -1.220000014000e-01  -1.350000054000e-01  0.0
 -1.500000060000e-01  -1.457143016000e-01  0.0
 -1.360000037000e-01  -1.282143034000e-01  0.0
 -1.500000060000e-01  -1.214286014000e-01  0.0
  2.849999964000e-01  -2.333333530000e-02  0.0
  2.837499976000e-01  -8.166666795000e-02  0.0
  2.824999988000e-01  -1.400000006000e-01  0.0
  3.174999952000e-01  -4.666666780000e-02  0.0
  3.162499964000e-01  -1.050000004500e-01  0.0
  3.499999940000e-01  -7.000000030000e-02  0.0
 -1.071429029000e-01  -1.700000018000e-01  0.0
 -8.571431040000e-02  -1.700000018000e-01  0.0
 -6.428571790000e-02  -1.700000018000e-01  0.0
 -9.857145324000e-02  -1.525000036000e-01  0.0
 -7.714286074000e-02  -1.525000036000e-01  0.0
 -9.000000358000e-02  -1.350000054000e-01  0.0
 -1.312499940000e-01  -2.000000030000e-01  0.0
 -1.191964484500e-01  -1.850000024000e-01  0.0
 -1.071429029000e-01  -1.700000018000e-01  0.0
 -1.406250000000e-01  -1.850000024000e-01  0.0
 -1.285714544500e-01  -1.700000018000e-01  0.0
 -1.500000060000e-01  -1.700000018000e-01  0.0
 -1.220000014000e-01  -1.350000054000e-01  0.0
 -1.060000024900e-01  -1.350000054000e-01  0.0
 -9.000000358000e-02  -1.350000054000e-01  0.0
 -1.185000017500e-01  -1.175000034500e-01  0.0
 -1.025000028400e-01  -1.175000034500e-01  0.0
 -1.150000021000e-01  -1.000000015000e-01  0.0
 -9.000000358000e-02  -1.350000054000e-01  0.0
 -1.060000024900e-01  -1.350000054000e-01  0.0
 -1.220000014000e-01  -1.350000054000e-01  0.0
 -9.857145324000e-02  -1.525000036000e-01  0.0
 -1.145714521500e-01  -1.525000036000e-01  0.0
 -1.071429029000e-01  -1.700000018000e-01  0.0
 -7.778175920000e-02  -9.192386270000e-02  0.0
 -9.639088065000e-02  -9.596193210000e-02  0.0
 -1.150000021000e-01  -1.000000015000e-01  0.0
 -8.389088139000e-02  -1.134619340500e-01  0.0
 -1.025000028400e-01  -1.175000034500e-01  0.0
 -9.000000358000e-02  -1.350000054000e-01  0.0
 -1.220000014000e-01  -1.350000054000e-01  0.0
 -1.185000017500e-01  -1.175000034500e-01  0.0
 -1.150000021000e-01  -1.000000015000e-01  0.0
 -1.360000037000e-01  -1.282143034000e-01  0.0
 -1.325000040500e-01  -1.107143014500e-01  0.0
 -1.500000060000e-01  -1.214286014000e-01  0.0
 -7.778175920000e-02  -9.192386270000e-02  0.0
 -8.389088139000e-02  -1.134619340500e-01  0.0
 -9.000000358000e-02  -1.350000054000e-01  0.0
 -6.639088876500e-02  -1.022535823500e-01  0.0
 -7.250001095500e-02  -1.237916537000e-01  0.0
 -5.500001833000e-02  -1.125833020000e-01  0.0
 -1.071429029000e-01  -1.700000018000e-01  0.0
 -1.145714521500e-01  -1.525000036000e-01  0.0
 -1.220000014000e-01  -1.350000054000e-01  0.0
 -1.285714544500e-01  -1.700000018000e-01  0.0
 -1.360000037000e-01  -1.525000036000e-01  0.0
 -1.500000060000e-01  -1.700000018000e-01  0.0
  6.250000093000e-03  -2.000000030000e-01  0.0
  4.062500153650e-02  -2.000000030000e-01  0.0
  7.500000298000e-02  -2.000000030000e-01  0.0
  1.383928512150e-02  -1.850000024000e-01  0.0
  4.821428656500e-02  -1.850000024000e-01  0.0
  2.142857015000e-02  -1.700000018000e-01  0.0
 -1.500000060000e-01  -7.285714149000e-02  0.0
 -1.500000060000e-01  -9.714287144500e-02  0.0
 -1.500000060000e-01  -1.214286014000e-01  0.0
 -1.325000040500e-01  -8.642857149500e-02  0.0
 -1.325000040500e-01  -1.107143014500e-01  0.0
 -1.150000021000e-01  -1.000000015000e-01  0.0
 -2.000000030000e-01  -6.333333254000e-02  0.0
 -1.750000045000e-01  -6.809523701500e-02  0.0
 -1.500000060000e-01  -7.285714149000e-02  0.0
 -1.750000045000e-01  -4.380952660000e-02  0.0
 -1.500000060000e-01  -4.857143107500e-02  0.0
 -1.500000060000e-01  -2.428572066000e-02  0.0
 -2.000000030000e-01  -6.333333254000e-02  0.0
 -2.000000030000e-01  -8.611111717000e-02  0.0
 -2.000000030000e-01  -1.088889018000e-01  0.0
 -1.750000045000e-01  -6.809523701500e-02  0.0
 -1.750000045000e-01  -9.087302164500e-02  0.0
 -1.500000060000e-01  -7.285714149000e-02  0.0
 -2.000000030000e-01  -6.333333254000e-02  0.0
 -1.750000045000e-01  -4.380952660000e-02  0.0
 -1.500000060000e-01  -2.428572066000e-02  0.0
 -2.000000030000e-01  -4.055555630500e-02  0.0
 -1.750000045000e-01  -2.103175036500e-02  0.0
 -2.000000030000e-01  -1.777778007000e-02  0.0
 -1.500000060000e-01  -2.428572066000e-02  0.0
 -1.500000060000e-01  -4.857143107500e-02  0.0
 -1.500000060000e-01  -7.285714149000e-02  0.0
 -1.281259023000e-01  -2.896608505500e-02  0.0
 -1.281259023000e-01  -5.325179547000e-02  0.0
 -1.062517986000e-01  -3.364644945000e-02  0.0
 -1.099999994000e-01   1.996667010000e-08  0.0
 -1.300000027000e-01  -1.214285034666e-02  0.0
 -1.500000060000e-01  -2.428572066000e-02  0.0
 -1.081258990000e-01  -1.682321474166e-02  0.0
 -1.281259023000e-01  -2.896608505500e-02  0.0
 -1.062517986000e-01  -3.364644945000e-02  0.0
 -1.500000060000e-01  -2.428572066000e-02  0.0
 -1.500000060000e-01   0.000000000000e+00  0.0
 -1.500000060000e-01   2.428572066000e-02  0.0
 -1.750000045000e-01  -2.103175036500e-02  0.0
 -1.750000045000e-01   3.253970295000e-03  0.0
 -2.000000030000e-01  -1.777778007000e-02  0.0
 -1.500000060000e-01  -7.285714149000e-02  0.0
 -1.226314045700e-01  -6.892856210000e-02  0.0
 -9.526280314000e-02  -6.499998271000e-02  0.0
 -1.281259023000e-01  -5.325179547000e-02  0.0
 -1.007573008700e-01  -4.932321608000e-02  0.0
 -1.062517986000e-01  -3.364644945000e-02  0.0
  3.499999940000e-01   1.400000006000e-01  0.0
  4.021931737500e-01   1.224999986500e-01  0.0
  4.543863535000e-01   1.049999967000e-01  0.0
  4.187500029500e-01   1.749999970000e-01  0.0
  4.709431827000e-01   1.574999950500e-01  0.0
  4.875000119000e-01   2.099999934000e-01  0.0
 -7.101409137000e-02  -4.349999130000e-02  0.0
 -8.313844725500e-02  -5.424998700500e-02  0.0
 -9.526280314000e-02  -6.499998271000e-02  0.0
 -6.449843011500e-02  -5.250913650000e-02  0.0
 -7.662278600000e-02  -6.325913220500e-02  0.0
 -5.798276886000e-02  -6.151828170000e-02  0.0
 -9.526280314000e-02  -6.499998271000e-02  0.0
 -1.226314045700e-01  -6.892856210000e-02  0.0
 -1.500000060000e-01  -7.285714149000e-02  0.0
 -1.051314026200e-01  -8.249999210500e-02  0.0
 -1.325000040500e-01  -8.642857149500e-02  0.0
 -1.150000021000e-01  -1.000000015000e-01  0.0
 -6.181925908000e-02  -1.656441018000e-02  0.0
 -7.051259093000e-02  -1.954082492500e-02  0.0
 -7.920592278000e-02  -2.251723967000e-02  0.0
 -5.862244405000e-02  -2.428220026000e-02  0.0
 -6.731577590000e-02  -2.725861500500e-02  0.0
 -5.542562902000e-02  -3.199999034000e-02  0.0
 -7.920592278000e-02  -2.251723967000e-02  0.0
 -9.272886069000e-02  -2.808184456000e-02  0.0
 -1.062517986000e-01  -3.364644945000e-02  0.0
 -7.511000707500e-02  -3.300861548500e-02  0.0
 -8.863294498500e-02  -3.857322037500e-02  0.0
 -7.101409137000e-02  -4.349999130000e-02  0.0
 -7.101409137000e-02  -4.349999130000e-02  0.0
 -6.321986019500e-02  -3.774999082000e-02  0.0
 -5.542562902000e-02  -3.199999034000e-02  0.0
 -7.511000707500e-02  -3.300861548500e-02  0.0
 -6.731577590000e-02  -2.725861500500e-02  0.0
 -7.920592278000e-02  -2.251723967000e-02  0.0
 -7.920592278000e-02  -2.251723967000e-02  0.0
 -9.460296109000e-02  -1.125860985166e-02  0.0
 -1.099999994000e-01   1.996667010000e-08  0.0
 -9.272886069000e-02  -2.808184456000e-02  0.0
 -1.081258990000e-01  -1.682321474166e-02  0.0
 -1.062517986000e-01  -3.364644945000e-02  0.0
 -7.778175920000e-02  -9.192386270000e-02  0.0
 -6.788226403000e-02  -7.672107220000e-02  0.0
 -5.798276886000e-02  -6.151828170000e-02  0.0
 -8.652228117000e-02  -7.846192270500e-02  0.0
 -7.662278600000e-02  -6.325913220500e-02  0.0
 -9.526280314000e-02  -6.499998271000e-02  0.0
 -7.101409137000e-02  -4.349999130000e-02  0.0
 -8.863294498500e-02  -3.857322037500e-02  0.0
 -1.062517986000e-01  -3.364644945000e-02  0.0
 -8.313844725500e-02  -5.424998700500e-02  0.0
 -1.007573008700e-01  -4.932321608000e-02  0.0
 -9.526280314000e-02  -6.499998271000e-02  0.0
 -7.778175920000e-02  -9.192386270000e-02  0.0
 -8.652228117000e-02  -7.846192270500e-02  0.0
 -9.526280314000e-02  -6.499998271000e-02  0.0
 -9.639088065000e-02  -9.596193210000e-02  0.0
 -1.051314026200e-01  -8.249999210500e-02  0.0
 -1.150000021000e-01  -1.000000015000e-01  0.0
[...]
POINT_DATA 2244
SCALARS field1 double 1
LOOKUP_TABLE default
  2.463036834922e-03 
  7.418564785272e-02 
  1.459082588705e-01 
  1.301811547491e-03 
  7.302442256529e-02 
  1.405862600599e-04 
  2.601383569570e-01 
  1.299167624556e-01 
 -3.048320458898e-04 
  1.310005570392e-01 
  7.789625377556e-04 
  1.862757121401e-03 
  1.439647336889e-01 
  1.863190201582e-01 
  2.286733066274e-01 
  1.984392820582e-01 
  2.407935685274e-01 
  2.529138304274e-01 
  2.302363899505e-01 
  1.867757301453e-01 
  1.433150703401e-01 
  1.775798643455e-01 
  1.341192045403e-01 
  1.249233387404e-01 
  3.124781150786e-01 
  2.828051736293e-01 
  2.531322321800e-01 
  2.722990850457e-01 
  2.426261435964e-01 
  2.321200550128e-01 
  2.807046332268e-01 
  1.489097728961e-01 
  1.711491256531e-02 
  2.760694111079e-01 
  1.442745507772e-01 
  2.714341889891e-01 
  1.254718154608e-01 
  1.758900418822e-01 
  2.263082683036e-01 
  1.785066263761e-01 
  2.289248527975e-01 
  2.315414372914e-01 
  2.817023010040e-01 
  2.917455866114e-01 
  3.017888722189e-01 
  2.888678846231e-01 
  2.989111702305e-01 
  2.960334682421e-01 
  1.899226436379e-01 
  2.239281697978e-01 
  2.579336959578e-01 
  2.233950842072e-01 
  2.574006103672e-01 
  2.568675247765e-01 
  8.016631485784e-04 
  9.521047677746e-02 
  1.896192904063e-01 
  6.118540490273e-02 
  1.555942185316e-01 
  1.215691466569e-01 
  2.230127055324e-01 
  2.378481500415e-01 
  2.526835945506e-01 
  2.540157777364e-01 
  2.688512222455e-01 
  2.850188499405e-01 
  2.542843797312e-01 
  2.386973574769e-01 
  2.231103352227e-01 
  2.222020596103e-01 
  2.066150373561e-01 
  1.901197394895e-01 
  3.165820338553e-01 
  3.004175060454e-01 
  2.842529782355e-01 
  2.858651616355e-01 
  2.697006338256e-01 
  2.551482894157e-01 
  2.240604423031e-01 
  2.554488365224e-01 
  2.868372307416e-01 
  2.288063480159e-01 
  2.601947422352e-01 
  2.335522537287e-01 
  3.167251863512e-01 
  2.863667765989e-01 
  2.560083668466e-01 
  3.276154515835e-01 
  2.972570418312e-01 
  3.385057168157e-01 
  1.882529575606e-01 
  2.070854058177e-01 
  2.259178540749e-01 
  1.561678709504e-01 
  1.750003192076e-01 
  1.240827843403e-01 
  1.641315324380e-03 
  2.584263607234e-03 
  3.527211890088e-03 
  1.667952446803e-01 
  1.677381929632e-01 
  3.319491740363e-01 
  3.121297516089e-01 
  2.727798460425e-01 
  2.334299404762e-01 
  2.998601718642e-01 
  2.605102662979e-01 
  2.875905921195e-01 
  3.272326213163e-01 
  3.184745790456e-01 
  3.097165367748e-01 
  3.349925275847e-01 
  3.262344853140e-01 
  3.427524338532e-01 
  3.264780403937e-01 
  2.903600449234e-01 
  2.542420494531e-01 
  3.185897955317e-01 
  2.824718000615e-01 
  3.107015506698e-01 
  3.283072658703e-01 
  3.356694955099e-01 
  3.430317251496e-01 
  3.462646154680e-01 
  3.536268451076e-01 
  3.642219650656e-01 
  3.429724673226e-01 
  3.276558203030e-01 
  3.123391732834e-01 
  3.151707175611e-01 
  2.998540705415e-01 
  2.873689677996e-01 
  2.658971096857e-01 
  3.046074341346e-01 
  3.433177585836e-01 
  2.752116650921e-01 
  3.139219895411e-01 
  2.845262204986e-01 
  3.392723192825e-01 
  3.419500208971e-01 
  3.446277225118e-01 
  3.520617412767e-01 
  3.547394428913e-01 
  3.648511632708e-01 
  3.116001360391e-01 
  3.004990287205e-01 
  2.893979214018e-01 
  2.988995544245e-01 
  2.877984471059e-01 
  2.861989728099e-01 
  2.975875100649e-01 
  3.228755843194e-01 
  3.481636585739e-01 
  1.729915260257e-01 
  1.982796002802e-01 
  4.839554198642e-02 
  2.508719679340e-01 
  2.728099838183e-01 
  2.947479997027e-01 
  2.845093822272e-01 
  3.064473981115e-01 
  3.181467965203e-01 
  2.905676619944e-01 
  3.011566467225e-01 
  3.117456314506e-01 
  2.893506819552e-01 
  2.999396666833e-01 
  2.881337019159e-01 
  9.237382049861e-02 
  1.448439525581e-01 
  1.973140846176e-01 
  1.199954460122e-01 
  1.724655780717e-01 
  1.476170715257e-01 
  1.919123130617e-01 
  2.376731304151e-01 
  2.834339477686e-01 
  2.213482936480e-01 
  2.671091110015e-01 
  2.507842742344e-01 
  2.504873258582e-01 
  2.004765337327e-01 
  1.504657416072e-01 
  2.227035150517e-01 
  1.726927229262e-01 
  1.949197042452e-01 
  1.907783516445e-01 
  2.267923669424e-01 
  2.628063822404e-01 
  2.374530637556e-01 
  2.734670790535e-01 
  2.841277758667e-01 
  3.175442236739e-01 
  3.190396095033e-01 
  3.205349953328e-01 
  3.054921704602e-01 
  3.069875562897e-01 
  2.934401172466e-01 
  2.524835033064e-01 
  2.683135109993e-01 
  2.841435186923e-01 
  2.737554139001e-01 
  2.895854215930e-01 
  2.950273244938e-01 
  3.144144771167e-01 
  3.029452231787e-01 
  2.914759692407e-01 
  2.999677996298e-01 
  2.884985456918e-01 
  2.855211221428e-01 
  1.953337352482e-01 
  1.445569168094e-01 
  9.378009837053e-02 
  1.832994939087e-01 
  1.325226754699e-01 
  1.712652525692e-01 
  3.369976372505e-01 
  2.970517459244e-01 
  2.571058545982e-01 
  2.979948855316e-01 
  2.580489942054e-01 
  2.589921338127e-01 
  2.675616535449e-01 
  2.747629941051e-01 
  2.819643346653e-01 
  2.661807960512e-01 
  2.733821366114e-01 
  2.647999385576e-01 
  3.583749299797e-01 
  3.344610934720e-01 
  3.105472569644e-01 
  3.724741774961e-01 
  3.485603409884e-01 
  3.865734250125e-01 
  3.552703986554e-01 
  3.451215803001e-01 
  3.349727619448e-01 
  3.074096315637e-01 
  2.972608132084e-01 
  2.595488644720e-01 
  3.163196299879e-01 
  3.474903890594e-01 
  3.786611481309e-01 
  3.181711541535e-01 
  3.493419132250e-01 
  3.200226783191e-01 
  3.801499766781e-01 
  3.482253415314e-01 
  3.163007063847e-01 
  3.601842102948e-01 
  3.282595751481e-01 
  3.402184439115e-01 
  4.357176325727e-01 
  4.089568662814e-01 
  3.821960999901e-01 
  3.865417389292e-01 
  3.597809726379e-01 
  3.373658452857e-01 
  3.315201174881e-01 
  3.254038724196e-01 
  3.192876273511e-01 
  3.574951867452e-01 
  3.513789416766e-01 
  3.834702560022e-01 
  3.351715740587e-01 
  3.466904166451e-01 
  3.582092592315e-01 
  3.860788983933e-01 
  3.975977409797e-01 
  4.369862227279e-01 
  3.575876186205e-01 
  3.090238099606e-01 
  2.604600013006e-01 
  3.336420383500e-01 
  2.850782296900e-01 
  3.096964580794e-01 
  4.657762124885e-01 
  4.522743049061e-01 
  4.387723973237e-01 
  4.130525933290e-01 
  3.995506857466e-01 
  3.603289741696e-01 
  1.416182801453e-03 
  1.719719373869e-01 
  3.425276919723e-01 
 -4.790136971995e-04 
  1.700767408882e-01 
 -2.374210195852e-03 
  4.451205021265e-01 
  3.977799390881e-01 
  3.504393760498e-01 
  4.034238050529e-01 
  3.560832420146e-01 
  3.617271079793e-01 
  3.497599157958e-01 
  3.972688913541e-01 
  4.447778669125e-01 
  4.051685743040e-01 
  4.526775498623e-01 
  4.605772328122e-01 
  3.605173569060e-01 
  3.548550818134e-01 
  3.491928067207e-01 
  1.836869258399e-01 
  1.780246507473e-01 
  6.856494773776e-03 
  4.388844099731e-01 
  4.018903961753e-01 
  3.648963823775e-01 
  4.119054188286e-01 
  3.749114050308e-01 
  3.849264276841e-01 
  4.345379556443e-01 
  3.885664017309e-01 
  3.425948478175e-01 
  4.482282592458e-01 
  4.022567053324e-01 
  4.619185628473e-01 
  4.645882166979e-01 
  4.129149732031e-01 
  3.612417297084e-01 
  4.239060538672e-01 
  3.722328103725e-01 
  3.832238910365e-01 
  3.107420960876e-01 
  3.178465128590e-01 
  3.249509296304e-01 
  3.488912066744e-01 
  3.559956234458e-01 
  3.870403172613e-01 
  3.297156979589e-01 
  3.585743685395e-01 
  3.874330391201e-01 
  3.464328199145e-01 
  3.752914904951e-01 
  3.631499418700e-01 
 -1.479634738661e-03 
  7.603685591091e-02 
  1.535533465605e-01 
  3.075114390068e-03 
  8.059160503964e-02 
  7.629863518796e-03 
  1.514643327472e-01 
  1.995598707732e-01 
  2.476554087991e-01 
  2.009374626653e-01 
  2.490330006913e-01 
  2.504105925834e-01 
  2.688061105648e-01 
  1.378265680385e-01 
  6.847025512159e-03 
  1.339424294384e-01 
  2.962886912110e-03 
 -9.212516879397e-04 
 -5.326601791742e-03 
  1.366138117639e-02 
  3.264936414452e-02 
  4.268626360879e-02 
  6.167424657692e-02 
  9.069912900932e-02 
  1.825822128030e-03 
 -2.237199972125e-03 
 -6.300222072281e-03 
  7.311482640101e-02 
  6.905180430085e-02 
  1.444038306740e-01 
  2.129243898027e-01 
  1.069692644895e-01 
  1.014139176389e-03 
  1.801735074616e-01 
  7.421838214843e-02 
  1.474226251205e-01 
  1.524914407131e-01 
  2.042617844161e-01 
  2.560321281190e-01 
  8.141554983240e-02 
  1.331858935354e-01 
  1.033965895167e-02 
 -8.234244059739e-03 
  4.087319039527e-02 
  8.998062485027e-02 
  6.790789938092e-02 
  1.170153338359e-01 
  1.440500428216e-01 
  2.750355477000e-03 
  3.182661416072e-03 
  3.614967355145e-03 
  1.831227735852e-01 
  1.835550795243e-01 
  3.634951916934e-01 
  5.524785879643e-03 
  1.784210770514e-01 
  3.513173682232e-01 
  3.758459466677e-03 
  1.766547506385e-01 
  1.992133053712e-03 
  3.277441505243e-01 
  1.670643349114e-01 
  6.384519298537e-03 
  3.029402791479e-01 
  1.422604635350e-01 
  2.781364077714e-01 
  2.341487478595e-03 
  1.342979116250e-01 
  2.662543357714e-01 
  5.746300724020e-03 
  1.377027248704e-01 
  9.151113969446e-03 
  8.392268378968e-03 
  1.691404941812e-01 
  3.298887199834e-01 
  1.842963407254e-01 
  3.450445665276e-01 
  3.602004130718e-01 
  3.120014275433e-01 
  1.603060500090e-01 
  8.610672474757e-03 
  3.185330158310e-01 
  1.668376382967e-01 
  3.250646041186e-01 
  1.937756100395e-01 
  9.721904071513e-02 
  6.624713907333e-04 
  9.870399788923e-02 
  2.147428564840e-03 
  3.632385738946e-03 
  1.435286662466e-02 
  1.384200600295e-01 
  2.624872534343e-01 
  1.716196085252e-01 
  2.956868019300e-01 
  3.288863504258e-01 
  2.551975153722e-01 
  2.876498553132e-01 
  3.201021952542e-01 
  2.927410557354e-01 
  3.251933956764e-01 
  3.302845960986e-01 
  2.648680182082e-01 
  1.365604609802e-01 
  8.252903752123e-03 
  2.854078789915e-01 
  1.571003217635e-01 
  3.059477397748e-01 
  4.624917304427e-01 
  4.224334468036e-01 
  3.823751631645e-01 
  4.275779850324e-01 
  3.875197013933e-01 
  3.926642396221e-01 
  2.515035622146e-01 
  2.492798871554e-01 
  2.470562120962e-01 
  2.859618928444e-01 
  2.837382177852e-01 
  3.204202234741e-01 
  1.332161485484e-03 
  3.816385666463e-03 
  6.300609847442e-03 
  1.348904526718e-01 
  1.373746768528e-01 
  2.684487438581e-01 
  2.890674272346e-02 
  1.324490185484e-02 
 -2.416939013779e-03 
  1.304800933082e-02 
 -2.613831537798e-03 
 -2.810724061817e-03 
  3.313437649221e-01 
  3.377372291406e-01 
  3.441306933592e-01 
  3.117233602168e-01 
  3.181168244354e-01 
  2.921029555116e-01 
  3.458564840953e-01 
  3.546517058370e-01 
  3.634469275786e-01 
  3.556564608826e-01 
  3.644516826243e-01 
  3.654564376699e-01 
  3.619737391292e-01 
  3.450398942525e-01 
  3.281060493758e-01 
  3.444735081868e-01 
  3.275396633101e-01 
  3.269732772443e-01 
  3.280102636891e-01 
  3.447074527021e-01 
  3.614046417150e-01 
  3.356626269915e-01 
  3.523598160045e-01 
  3.433149902939e-01 
  3.262708967778e-01 
  3.280884256422e-01 
  3.299059545067e-01 
  2.905038011097e-01 
  2.923213299741e-01 
  2.547367054416e-01 
  9.010550830763e-03 
 -6.499338259499e-03 
 -2.200922734976e-02 
  1.343708871567e-01 
  1.188609980665e-01 
  2.597312234827e-01 
  3.457777300736e-01 
  3.062225893827e-01 
  2.666674486917e-01 
  3.172034520525e-01 
  2.776483113616e-01 
  2.886291740314e-01 
  3.450140926213e-01 
  3.431489565932e-01 
  3.412838205652e-01 
  3.068802567408e-01 
  3.050151207127e-01 
  2.687464208603e-01 
  1.898640516723e-01 
  2.389132878507e-01 
  2.879625240291e-01 
  2.270754090352e-01 
  2.761246452136e-01 
  2.642867663981e-01 
  2.634222024466e-01 
  2.275529334147e-01 
  1.916836643828e-01 
  2.124122465359e-01 
  1.765429775040e-01 
  1.614022906252e-01 
  2.868421936783e-01 
  2.729988027370e-01 
  2.591554117957e-01 
  2.908882419158e-01 
  2.770448509745e-01 
  2.949342901534e-01 
  2.587877443755e-01 
  2.722614451486e-01 
  2.857351459216e-01 
  2.248548129670e-01 
  2.383285137400e-01 
  1.909218815584e-01 
  3.167033144945e-01 
  3.048845404718e-01 
  2.930657664491e-01 
  3.241520921464e-01 
  3.123333181237e-01 
  3.316008697983e-01 
  2.903732733545e-01 
  2.914529225137e-01 
  2.925325716728e-01 
  3.111395359798e-01 
  3.122191851390e-01 
  3.319057986051e-01 
  1.924714447432e-01 
  1.813658923674e-01 
  1.702603399916e-01 
  1.428134432878e-01 
  1.317078909120e-01 
  9.315544183240e-02 
  1.900937726486e-01 
  2.267873090981e-01 
  2.634808455475e-01 
  1.803069757357e-01 
  2.170005121851e-01 
  1.705201788227e-01 
  2.623341330179e-01 
  2.268691390855e-01 
  1.914041451532e-01 
  2.168289606183e-01 
  1.813639666860e-01 
  1.713237882187e-01 
  3.312838307241e-01 
  3.127663816635e-01 
  2.942489326028e-01 
  3.167577774594e-01 
  2.982403283987e-01 
  3.022317241946e-01 
  2.533812325620e-01 
  2.482361228578e-01 
  2.430910131536e-01 
  1.988807472298e-01 
  1.937356375257e-01 
  1.443802618977e-01 
  2.540384576335e-01 
  2.926762071083e-01 
  3.313139565831e-01 
  2.500132610237e-01 
  2.886510104985e-01 
  2.459880644139e-01 
  1.435665460719e-01 
  1.475419637217e-01 
  1.515173813714e-01 
  7.206200576060e-02 
  7.603742341034e-02 
  5.574654492762e-04 
  1.527489797747e-01 
  1.481574334489e-01 
  1.435658871231e-01 
  1.985239138262e-01 
  1.939323675004e-01 
  2.442988478777e-01 
  2.250692863730e-01 
  1.162068074575e-01 
  7.344328542125e-03 
  1.119813375428e-01 
  3.118858627410e-03 
 -1.106611287304e-03 
  2.267700964035e-02 
  1.293555510699e-02 
  3.194100573623e-03 
  1.693277600583e-01 
  1.595863055250e-01 
  3.159785104763e-01 
  2.461851947225e-01 
  2.402621330361e-01 
  2.343390713496e-01 
  1.992232790030e-01 
  1.933002173165e-01 
  1.522613632834e-01 
  2.828624689349e-01 
  1.401919829311e-01 
 -2.478503072809e-03 
  1.526875766158e-01 
  1.001709061197e-02 
  2.251268429676e-02 
  2.988842182694e-01 
  3.064303838270e-01 
  3.139765493847e-01 
  2.846082674965e-01 
  2.921544330542e-01 
  2.703323167237e-01 
  3.130523083522e-01 
  3.068077362970e-01 
  3.005631642418e-01 
  3.039098976181e-01 
  2.976653255629e-01 
  2.947674868840e-01 
  2.293536071414e-01 
  2.512535756035e-01 
  2.731535440655e-01 
  2.225980809541e-01 
  2.444980494161e-01 
  2.158425547667e-01 
  2.689318228371e-01 
  2.504331916006e-01 
  2.319345603641e-01 
  2.840858095133e-01 
  2.655871782768e-01 
  2.992397961896e-01 
  2.199159083723e-01 
  2.474591058832e-01 
  2.750023033942e-01 
  2.537104813288e-01 
  2.812536788398e-01 
  2.875050542853e-01 
  2.328990823670e-01 
  2.219005181876e-01 
  2.109019540082e-01 
  1.913919187092e-01 
  1.803933545298e-01 
  1.498847550514e-01 
  3.133876210671e-01 
  3.230991091536e-01 
  3.328105972401e-01 
  2.925133429361e-01 
  3.022248310225e-01 
  2.716390648050e-01 
  3.010994665787e-01 
  2.673269674125e-01 
  2.335544682463e-01 
  2.742600951854e-01 
  2.404875960192e-01 
  2.474207237922e-01 
  3.307535788651e-01 
  3.160439203227e-01 
  3.013342617803e-01 
  2.888048918684e-01 
  2.740952333260e-01 
  2.468562048717e-01 
  2.248490797823e-01 
  2.537532383253e-01 
  2.826573968682e-01 
  1.171752060515e-01 
  1.460793645944e-01 
  9.501332320662e-03 
  2.923136197052e-01 
  2.765418283390e-01 
  2.607700369728e-01 
  3.114178861017e-01 
  2.956460947354e-01 
  3.305221524981e-01 
  5.747180984851e-02 
  1.646193703872e-01 
  2.717669309258e-01 
  1.267574612104e-01 
  2.339050217491e-01 
  1.960431125723e-01 
  3.126931962866e-02 
  1.440143959880e-02 
 -2.466440431063e-03 
  6.191102503097e-02 
  4.504314500111e-02 
  9.255273043328e-02 
  2.848561341071e-02 
  1.262858188968e-02 
 -3.228449631352e-03 
  1.360155548083e-02 
 -2.255476040203e-03 
 -1.282502449054e-03 
  9.388926433472e-02 
  4.744288483647e-02 
  9.965053382263e-04 
  1.249136449151e-01 
  7.846726541681e-02 
  1.559380254954e-01 
  2.347004306440e-01 
  1.955179501458e-01 
  1.563354696476e-01 
  1.162994654815e-01 
  7.711698498326e-02 
 -2.101499681052e-03 
  2.410566392627e-01 
  2.877042241656e-01 
  3.343518090685e-01 
  2.527035490760e-01 
  2.993511339789e-01 
  2.643504588893e-01 
  2.379549275360e-01 
  2.522814274943e-01 
  2.666079274527e-01 
  1.984394436014e-01 
  2.127659435597e-01 
  1.589239596668e-01 
  1.563825774187e-03 
  4.760587718631e-02 
  9.364792859844e-02 
 -1.951297933523e-05 
  4.602253843279e-02 
 -1.602851732857e-03 
  1.934538509299e-01 
  1.433996049612e-01 
  9.334535899241e-02 
  1.761503876924e-01 
  1.260961417237e-01 
  1.588469244550e-01 
 -1.120005672542e-03 
  1.512376554280e-03 
  4.144758781102e-03 
  1.174388301191e-01 
  1.200712123460e-01 
  2.359976659108e-01 
  3.286421492316e-01 
  1.682052484575e-01 
  7.768347683399e-03 
  3.187945028560e-01 
  1.583576020819e-01 
  3.089468564804e-01 
  2.437492834803e-01 
  1.764110668445e-01 
  1.090728502087e-01 
  2.946325284358e-01 
  2.272943118000e-01 
  3.455157733913e-01 
  1.453621169497e-01 
  7.396474793601e-02 
  2.567378922280e-03 
  1.339864433197e-01 
  6.258907430601e-02 
  1.226107696897e-01 
  3.406369841255e-01 
  1.713984220058e-01 
  2.159859886222e-03 
  1.742367102252e-01 
  4.998148105565e-03 
  7.836436324909e-03 
  3.318402579253e-01 
  1.654211551857e-01 
 -9.979475539257e-04 
  1.691687537666e-01 
  2.749651026999e-03 
  6.497249607924e-03 
  2.674206275516e-01 
  1.362146364211e-01 
  5.008645290668e-03 
  2.489866927349e-01 
  1.177807016045e-01 
  2.305527579183e-01 
  2.340032349962e-01 
  1.177330622219e-01 
  1.462889447727e-03 
  2.793468982849e-01 
  1.630767255107e-01 
  3.246905615736e-01 
  2.937451994652e-01 
  2.863320386743e-01 
  2.789188778833e-01 
  2.942286892742e-01 
  2.868155284832e-01 
  2.947121790831e-01 
  3.696669808033e-01 
  1.866617374011e-01 
  3.656493998874e-03 
  1.861063768051e-01 
  3.101133402846e-03 
  2.545772806819e-03 
  3.327840517249e-01 
  3.298281967359e-01 
  3.268723417469e-01 
  3.619971166426e-01 
  3.590412616537e-01 
  3.912101815604e-01 
  3.233179614644e-01 
  3.294623334135e-01 
  3.356067053626e-01 
  2.804670678291e-01 
  2.866114397782e-01 
  2.376161741938e-01 
  3.523574773194e-01 
  3.177877799338e-01 
  2.832180825481e-01 
  3.421028782854e-01 
  3.075331808997e-01 
  3.318482792514e-01 
  2.861974166436e-01 
  2.803930362426e-01 
  2.745886558415e-01 
  3.087503151442e-01 
  3.029459347431e-01 
  3.313032136448e-01 
  3.362710443350e-01 
  3.252415128427e-01 
  3.142119813503e-01 
  3.633885382066e-01 
  3.523590067143e-01 
  3.905060320782e-01 
  3.908508513737e-01 
  4.159494935687e-01 
  4.410481357636e-01 
  3.631667831190e-01 
  3.882654253139e-01 
  3.354827148642e-01 
  3.910947163675e-01 
  3.607369607940e-01 
  3.303792052204e-01 
  3.785108082071e-01 
  3.481530526335e-01 
  3.659269000467e-01 
  3.319431730462e-01 
  3.603596002518e-01 
  3.887760274575e-01 
  3.234888420471e-01 
  3.519052692527e-01 
  3.150345110480e-01 
  3.645341110984e-01 
  3.585979730502e-01 
  3.526618350021e-01 
  4.052576961742e-01 
  3.993215581260e-01 
  4.459812812500e-01 
  3.662333613215e-01 
  3.516772485130e-01 
  3.371211357045e-01 
  1.892631399321e-01 
  1.747070271236e-01 
  1.229291854267e-02 
  3.612268273733e-01 
  4.022351070415e-01 
  4.432433867096e-01 
  4.114624830071e-01 
  4.524707626752e-01 
  4.616981386408e-01 
  4.428743275729e-01 
  4.006749254575e-01 
  3.584755233421e-01 
  3.880877076909e-01 
  3.458883055755e-01 
  3.333010878089e-01 
  3.269695325785e-01 
  3.413618203447e-01 
  3.557541081109e-01 
  3.585818920135e-01 
  3.729741797797e-01 
  3.901942514486e-01 
  3.544869012868e-01 
  3.402284473459e-01 
  3.259699934051e-01 
  3.175258632572e-01 
  3.032674093163e-01 
  2.805648252276e-01 
  4.559183212787e-01 
  4.510119253262e-01 
  4.461055293737e-01 
  4.037269663185e-01 
  3.988205703659e-01 
  3.515356113582e-01 
  3.656538461256e-01 
  4.034470077618e-01 
  4.412401693981e-01 
  3.778709652538e-01 
  4.156641268900e-01 
  3.900880843820e-01 
  7.756659683558e-03 
  1.796447710339e-01 
  3.515328823842e-01 
  1.872238210185e-01 
  3.591119323688e-01 
  3.666909823535e-01 