# vtk DataFile Version 2
NuDG++ 2D simulation
ASCII
DATASET UNSTRUCTURED_GRID

POINTS 2244 double
 -1.656250060000e-01  -2.000000030000e-01  0.0
 -1.828125045000e-01  -1.772221997500e-01  0.0
 -2.000000030000e-01  -1.544443965000e-01  0.0
 -1.828125045000e-01  -2.000000030000e-01  0.0
 -2.000000030000e-01  -1.772221997500e-01  0.0
 -2.000000030000e-01  -2.000000030000e-01  0.0
 -6.428571790000e-02  -1.700000018000e-01  0.0
 -8.058035746000e-02  -1.850000024000e-01  0.0
 -9.687499702000e-02  -2.000000030000e-01  0.0
 -6.339285895000e-02  -1.850000024000e-01  0.0
 -7.968749851000e-02  -2.000000030000e-01  0.0
 -6.250000000000e-02  -2.000000030000e-01  0.0
 -2.000000030000e-01  -1.544443965000e-01  0.0
 -1.750000045000e-01  -1.379364989500e-01  0.0
 -1.500000060000e-01  -1.214286014000e-01  0.0
 -2.000000030000e-01  -1.316666491500e-01  0.0
 -1.750000045000e-01  -1.151587516000e-01  0.0
 -2.000000030000e-01  -1.088889018000e-01  0.0
 -1.500000060000e-01  -1.214286014000e-01  0.0
 -1.750000045000e-01  -1.379364989500e-01  0.0
 -2.000000030000e-01  -1.544443965000e-01  0.0
 -1.500000060000e-01  -1.457143016000e-01  0.0
 -1.750000045000e-01  -1.622221991500e-01  0.0
 -1.500000060000e-01  -1.700000018000e-01  0.0
 -1.500000060000e-01  -7.285714149000e-02  0.0
 -1.750000045000e-01  -9.087302164500e-02  0.0
 -2.000000030000e-01  -1.088889018000e-01  0.0
 -1.500000060000e-01  -9.714287144500e-02  0.0
 -1.750000045000e-01  -1.151587516000e-01  0.0
 -1.500000060000e-01  -1.214286014000e-01  0.0
  1.832975030000e+00  -4.625000060000e-02  0.0
  1.853987515000e+00  -1.231250018000e-01  0.0
  1.875000000000e+00  -2.000000030000e-01  0.0
  1.916487515000e+00  -7.187499851000e-02  0.0
  1.937500000000e+00  -1.487499997100e-01  0.0
  2.000000000000e+00  -9.749999642000e-02  0.0
 -1.500000060000e-01  -1.700000018000e-01  0.0
 -1.360000037000e-01  -1.525000036000e-01  0.0
 -1.220000014000e-01  -1.350000054000e-01  0.0
 -1.500000060000e-01  -1.457143016000e-01  0.0
 -1.360000037000e-01  -1.282143034000e-01  0.0
 -1.500000060000e-01  -1.214286014000e-01  0.0
  2.849999964000e-01  -2.333333530000e-02  0.0
  2.837499976000e-01  -8.166666795000e-02  0.0
  2.824999988000e-01  -1.400000006000e-01  0.0
  3.174999952000e-01  -4.666666780000e-02  0.0
  3.162499964000e-01  -1.050000004500e-01  0.0
  3.499999940000e-01  -7.000000030000e-02  0.0
 -1.071429029000e-01  -1.700000018000e-01  0.0
 -8.571431040000e-02  -1.700000018000e-01  0.0
 -6.428571790000e-02  -1.700000018000e-01  0.0
 -9.857145324000e-02  -1.525000036000e-01  0.0
 -7.714286074000e-02  -1.525000036000e-01  0.0
 -9.000000358000e-02  -1.350000054000e-01  0.0
 -1.312499940000e-01  -2.000000030000e-01  0.0
 -1.191964484500e-01  -1.850000024000e-01  0.0
 -1.071429029000e-01  -1.700000018000e-01  0.0
 -1.406250000000e-01  -1.850000024000e-01  0.0
 -1.285714544500e-01  -1.700000018000e-01  0.0
 -1.500000060000e-01  -1.700000018000e-01  0.0
 -1.220000014000e-01  -1.350000054000e-01  0.0
 -1.060000024900e-01  -1.350000054000e-01  0.0
 -9.000000358000e-02  -1.350000054000e-01  0.0
 -1.185000017500e-01  -1.175000034500e-01  0.0
 -1.025000028400e-01  -1.175000034500e-01  0.0
 -1.150000021000e-01  -1.000000015000e-01  0.0
 -9.000000358000e-02  -1.350000054000e-01  0.0
 -1.060000024900e-01  -1.350000054000e-01  0.0
 -1.220000014000e-01  -1.350000054000e-01  0.0
 -9.857145324000e-02  -1.525000036000e-01  0.0
 -1.145714521500e-01  -1.525000036000e-01  0.0
 -1.071429029000e-01  -1.700000018000e-01  0.0
 -7.778175920000e-02  -9.192386270000e-02  0.0
 -9.639088065000e-02  -9.596193210000e-02  0.0
 -1.150000021000e-01  -1.000000015000e-01  0.0
 -8.389088139000e-02  -1.134619340500e-01  0.0
 -1.025000028400e-01  -1.175000034500e-01  0.0
 -9.000000358000e-02  -1.350000054000e-01  0.0
 -1.220000014000e-01  -1.350000054000e-01  0.0
 -1.185000017500e-01  -1.175000034500e-01  0.0
 -1.150000021000e-01  -1.000000015000e-01  0.0
 -1.360000037000e-01  -1.282143034000e-01  0.0
 -1.325000040500e-01  -1.107143014500e-01  0.0
 -1.500000060000e-01  -1.214286014000e-01  0.0
 -7.778175920000e-02  -9.192386270000e-02  0.0
 -8.389088139000e-02  -1.134619340500e-01  0.0
 -9.000000358000e-02  -1.350000054000e-01  0.0
 -6.639088876500e-02  -1.022535823500e-01  0.0
 -7.250001095500e-02  -1.237916537000e-01  0.0
 -5.500001833000e-02  -1.125833020000e-01  0.0
 -1.071429029000e-01  -1.700000018000e-01  0.0
 -1.145714521500e-01  -1.525000036000e-01  0.0
 -1.220000014000e-01  -1.350000054000e-01  0.0
 -1.285714544500e-01  -1.700000018000e-01  0.0
 -1.360000037000e-01  -1.525000036000e-01  0.0
 -1.500000060000e-01  -1.700000018000e-01  0.0
  6.250000093000e-03  -2.000000030000e-01  0.0
  4.062500153650e-02  -2.000000030000e-01  0.0
  7.500000298000e-02  -2.000000030000e-01  0.0
  1.383928512150e-02  -1.850000024000e-01  0.0
  4.821428656500e-02  -1.850000024000e-01  0.0
  2.142857015000e-02  -1.700000018000e-01  0.0
 -1.500000060000e-01  -7.285714149000e-02  0.0
 -1.500000060000e-01  -9.714287144500e-02  0.0
 -1.500000060000e-01  -1.214286014000e-01  0.0
 -1.325000040500e-01  -8.642857149500e-02  0.0
 -1.325000040500e-01  -1.107143014500e-01  0.0
 -1.150000021000e-01  -1.000000015000e-01  0.0
 -2.000000030000e-01  -6.333333254000e-02  0.0
 -1.750000045000e-01  -6.809523701500e-02  0.0
 -1.500000060000e-01  -7.285714149000e-02  0.0
 -1.750000045000e-01  -4.380952660000e-02  0.0
 -1.500000060000e-01  -4.857143107500e-02  0.0
 -1.500000060000e-01  -2.428572066000e-02  0.0
 -2.000000030000e-01  -6.333333254000e-02  0.0
 -2.000000030000e-01  -8.611111717000e-02  0.0
 -2.000000030000e-01  -1.088889018000e-01  0.0
 -1.750000045000e-01  -6.809523701500e-02  0.0
 -1.750000045000e-01  -9.087302164500e-02  0.0
 -1.500000060000e-01  -7.285714149000e-02  0.0
 -2.000000030000e-01  -6.333333254000e-02  0.0
 -1.750000045000e-01  -4.380952660000e-02  0.0
 -1.500000060000e-01  -2.428572066000e-02  0.0
 -2.000000030000e-01  -4.055555630500e-02  0.0
 -1.750000045000e-01  -2.103175036500e-02  0.0
 -2.000000030000e-01  -1.777778007000e-02  0.0
 -1.500000060000e-01  -2.428572066000e-02  0.0
 -1.500000060000e-01  -4.857143107500e-02  0.0
 -1.500000060000e-01  -7.285714149000e-02  0.0
 -1.281259023000e-01  -2.896608505500e-02  0.0
 -1.281259023000e-01  -5.325179547000e-02  0.0
 -1.062517986000e-01  -3.364644945000e-02  0.0
 -1.099999994000e-01   1.996667010000e-08  0.0
 -1.300000027000e-01  -1.214285034666e-02  0.0
 -1.500000060000e-01  -2.428572066000e-02  0.0
 -1.081258990000e-01  -1.682321474166e-02  0.0
 -1.281259023000e-01  -2.896608505500e-02  0.0
 -1.062517986000e-01  -3.364644945000e-02  0.0
 -1.500000060000e-01  -2.428572066000e-02  0.0
 -1.500000060000e-01   0.000000000000e+00  0.0
 -1.500000060000e-01   2.428572066000e-02  0.0
 -1.750000045000e-01  -2.103175036500e-02  0.0
 -1.750000045000e-01   3.253970295000e-03  0.0
 -2.000000030000e-01  -1.777778007000e-02  0.0
 -1.500000060000e-01  -7.285714149000e-02  0.0
 -1.226314045700e-01  -6.892856210000e-02  0.0
 -9.526280314000e-02  -6.499998271000e-02  0.0
 -1.281259023000e-01  -5.325179547000e-02  0.0
 -1.007573008700e-01  -4.932321608000e-02  0.0
 -1.062517986000e-01  -3.364644945000e-02  0.0
  3.499999940000e-01   1.400000006000e-01  0.0
  4.021931737500e-01   1.224999986500e-01  0.0
  4.543863535000e-01   1.049999967000e-01  0.0
  4.187500029500e-01   1.749999970000e-01  0.0
  4.709431827000e-01   1.574999950500e-01  0.0
  4.875000119000e-01   2.099999934000e-01  0.0
 -7.101409137000e-02  -4.349999130000e-02  0.0
 -8.313844725500e-02  -5.424998700500e-02  0.0
 -9.526280314000e-02  -6.499998271000e-02  0.0
 -6.449843011500e-02  -5.250913650000e-02  0.0
 -7.662278600000e-02  -6.325913220500e-02  0.0
 -5.798276886000e-02  -6.151828170000e-02  0.0
 -9.526280314000e-02  -6.499998271000e-02  0.0
 -1.226314045700e-01  -6.892856210000e-02  0.0
 -1.500000060000e-01  -7.285714149000e-02  0.0
 -1.051314026200e-01  -8.249999210500e-02  0.0
 -1.325000040500e-01  -8.642857149500e-02  0.0
 -1.150000021000e-01  -1.000000015000e-01  0.0
 -6.181925908000e-02  -1.656441018000e-02  0.0
 -7.051259093000e-02  -1.954082492500e-02  0.0
 -7.920592278000e-02  -2.251723967000e-02  0.0
 -5.862244405000e-02  -2.428220026000e-02  0.0
 -6.731577590000e-02  -2.725861500500e-02  0.0
 -5.542562902000e-02  -3.199999034000e-02  0.0
 -7.920592278000e-02  -2.251723967000e-02  0.0
 -9.272886069000e-02  -2.808184456000e-02  0.0
 -1.062517986000e-01  -3.364644945000e-02  0.0
 -7.511000707500e-02  -3.300861548500e-02  0.0
 -8.863294498500e-02  -3.857322037500e-02  0.0
 -7.101409137000e-02  -4.349999130000e-02  0.0
 -7.101409137000e-02  -4.349999130000e-02  0.0
 -6.321986019500e-02  -3.774999082000e-02  0.0
 -5.542562902000e-02  -3.199999034000e-02  0.0
 -7.511000707500e-02  -3.300861548500e-02  0.0
 -6.731577590000e-02  -2.725861500500e-02  0.0
 -7.920592278000e-02  -2.251723967000e-02  0.0
 -7.920592278000e-02  -2.251723967000e-02  0.0
 -9.460296109000e-02  -1.125860985166e-02  0.0
 -1.099999994000e-01   1.996667010000e-08  0.0
 -9.272886069000e-02  -2.808184456000e-02  0.0
 -1.081258990000e-01  -1.682321474166e-02  0.0
 -1.062517986000e-01  -3.364644945000e-02  0.0
 -7.778175920000e-02  -9.192386270000e-02  0.0
 -6.788226403000e-02  -7.672107220000e-02  0.0
 -5.798276886000e-02  -6.151828170000e-02  0.0
 -8.652228117000e-02  -7.846192270500e-02  0.0
 -7.662278600000e-02  -6.325913220500e-02  0.0
 -9.526280314000e-02  -6.499998271000e-02  0.0
 -7.101409137000e-02  -4.349999130000e-02  0.0
 -8.863294498500e-02  -3.857322037500e-02  0.0
 -1.062517986000e-01  -3.364644945000e-02  0.0
 -8.313844725500e-02  -5.424998700500e-02  0.0
 -1.007573008700e-01  -4.932321608000e-02  0.0
 -9.526280314000e-02  -6.499998271000e-02  0.0
 -7.778175920000e-02  -9.192386270000e-02  0.0
 -8.652228117000e-02  -7.846192270500e-02  0.0
 -9.526280314000e-02  -6.499998271000e-02  0.0
 -9.639088065000e-02  -9.596193210000e-02  0.0
 -1.051314026200e-01  -8.249999210500e-02  0.0
 -1.150000021000e-01  -1.000000015000e-01  0.0
[...]
POINT_DATA 2244
SCALARS field1 double 1
LOOKUP_TABLE default
  2.234319104808e-03 
  3.004921943646e-02 
  5.786411976812e-02 
  1.401817979891e-03 
  2.921671831155e-02 
  5.693168549738e-04 
  1.248617348792e-01 
  6.318680650599e-02 
  1.511878132810e-03 
  6.301571479000e-02 
  1.340786416815e-03 
  1.169694700820e-03 
  5.655096405657e-02 
  7.310698281831e-02 
  8.966300158005e-02 
  7.844046284367e-02 
  9.499648160541e-02 
  1.003299616308e-01 
  9.088050258808e-02 
  7.293144445428e-02 
  5.498238632048e-02 
  7.787953115193e-02 
  5.993047301813e-02 
  6.487855971577e-02 
  1.208210362457e-01 
  1.106314613838e-01 
  1.004418865219e-01 
  1.060654616300e-01 
  9.587588676814e-02 
  9.130988701443e-02 
  1.407799194857e-01 
  9.426664859316e-02 
  4.775337770068e-02 
  1.342517757497e-01 
  8.773850485719e-02 
  1.277236320137e-01 
  6.695977564335e-02 
  8.479610444099e-02 
  1.026324332386e-01 
  7.936716113583e-02 
  9.720348993347e-02 
  9.177454662831e-02 
  1.064048898430e-01 
  1.154518312501e-01 
  1.244987726571e-01 
  1.091534691626e-01 
  1.182004105696e-01 
  1.119020484821e-01 
  1.030694771435e-01 
  1.124633297623e-01 
  1.218571823811e-01 
  1.056012022024e-01 
  1.149950548212e-01 
  1.081329272613e-01 
  3.498280002579e-03 
  5.440534805482e-02 
  1.053124161071e-01 
  3.523850762835e-02 
  8.614557568060e-02 
  6.697873525413e-02 
  9.909383416457e-02 
  1.020760208922e-01 
  1.050582076199e-01 
  1.023768899423e-01 
  1.053590766700e-01 
  1.056599457201e-01 
  1.060010156961e-01 
  1.027061545781e-01 
  9.941129346021e-02 
  1.048845968803e-01 
  1.015897357624e-01 
  1.037681780645e-01 
  1.229563730213e-01 
  1.141361696204e-01 
  1.053159662194e-01 
  1.145650172755e-01 
  1.057448138745e-01 
  1.061736615296e-01 
  9.988971658219e-02 
  1.034047021597e-01 
  1.069196877372e-01 
  9.674745718854e-02 
  1.002624427661e-01 
  9.360519779489e-02 
  1.230362884255e-01 
  1.155912680266e-01 
  1.081462476277e-01 
  1.274470516316e-01 
  1.200020312327e-01 
  1.318578148377e-01 
  1.035544353628e-01 
  1.024094182879e-01 
  1.012644012130e-01 
  8.570101480590e-02 
  8.455599773102e-02 
  6.784759424905e-02 
  1.402434864030e-03 
  2.023399847953e-03 
  2.644364831875e-03 
  7.178132701532e-02 
  7.240229199924e-02 
  1.421602191666e-01 
  1.199342551926e-01 
  1.065179720351e-01 
  9.310168887765e-02 
  1.139631547396e-01 
  1.005468715821e-01 
  1.079920542866e-01 
  1.317514756432e-01 
  1.256943671536e-01 
  1.196372586641e-01 
  1.319618337902e-01 
  1.259047253007e-01 
  1.321721919373e-01 
  1.305358624841e-01 
  1.158412561764e-01 
  1.011466498686e-01 
  1.256092623397e-01 
  1.109146560319e-01 
  1.206826621953e-01 
  1.313238835026e-01 
  1.323546769972e-01 
  1.333854704917e-01 
  1.386309514809e-01 
  1.396617449755e-01 
  1.459380194593e-01 
  1.296749393978e-01 
  1.249408674649e-01 
  1.202067955320e-01 
  1.140210620686e-01 
  1.092869901357e-01 
  9.836718473937e-02 
  8.488682604596e-02 
  1.066065850539e-01 
  1.283263440618e-01 
  9.191607024430e-02 
  1.136358292522e-01 
  9.894531444263e-02 
  1.298916270996e-01 
  1.299380623115e-01 
  1.299844975234e-01 
  1.390448426165e-01 
  1.390912778284e-01 
  1.481980581334e-01 
  1.195427383115e-01 
  1.144116679722e-01 
  1.092805976329e-01 
  1.089594844308e-01 
  1.038284140915e-01 
  9.837623055016e-02 
  1.295003578374e-01 
  1.312711330666e-01 
  1.330419082957e-01 
  8.256135575354e-02 
  8.433213098271e-02 
  3.562235366970e-02 
  8.803652934064e-02 
  9.964628760686e-02 
  1.112560458731e-01 
  1.033995848798e-01 
  1.150093431460e-01 
  1.187626404190e-01 
  1.101951198121e-01 
  1.146717973905e-01 
  1.191484749690e-01 
  1.092734009484e-01 
  1.137500785269e-01 
  1.083516820847e-01 
  2.927885658339e-02 
  4.928212166783e-02 
  6.928538675227e-02 
  3.955893154490e-02 
  5.956219662933e-02 
  4.983900650640e-02 
  6.900900451218e-02 
  8.352206159473e-02 
  9.803511867727e-02 
  7.825452102656e-02 
  9.276757810911e-02 
  8.750003754095e-02 
  8.760010773420e-02 
  6.911390583939e-02 
  5.062770394459e-02 
  7.815910460826e-02 
  5.967290271345e-02 
  6.871810148231e-02 
  6.899893481228e-02 
  7.731224515699e-02 
  8.562555550169e-02 
  8.371896442320e-02 
  9.203227476791e-02 
  9.843899403412e-02 
  1.231801736968e-01 
  1.211354334069e-01 
  1.190906931169e-01 
  1.172307857297e-01 
  1.151860454398e-01 
  1.112813977627e-01 
  8.819536380605e-02 
  9.289350025861e-02 
  9.759163671118e-02 
  9.946986564251e-02 
  1.041680020951e-01 
  1.107443674790e-01 
  1.225031565206e-01 
  1.169538379132e-01 
  1.114045193058e-01 
  1.147992315522e-01 
  1.092499129448e-01 
  1.070953065838e-01 
  6.903289538616e-02 
  4.903170075404e-02 
  2.903050612193e-02 
  6.183078998662e-02 
  4.182959535451e-02 
  5.462868458709e-02 
  1.302502006839e-01 
  1.197564572447e-01 
  1.092627138054e-01 
  1.261315121319e-01 
  1.156377686927e-01 
  1.220128235800e-01 
  1.261017591854e-01 
  1.287887694302e-01 
  1.314757796749e-01 
  1.142320589590e-01 
  1.169190692038e-01 
  1.023623587327e-01 
  1.349029609220e-01 
  1.354660440688e-01 
  1.360291272157e-01 
  1.384364166309e-01 
  1.389994997778e-01 
  1.419698723399e-01 
  1.328665041356e-01 
  1.307424518970e-01 
  1.286183996585e-01 
  1.276564745332e-01 
  1.255324222946e-01 
  1.224464449308e-01 
  1.224272454034e-01 
  1.338551467565e-01 
  1.452830481096e-01 
  1.207446798698e-01 
  1.321725812229e-01 
  1.190621143362e-01 
  1.457300186127e-01 
  1.340659716054e-01 
  1.224019245981e-01 
  1.381129657561e-01 
  1.264489187488e-01 
  1.304959128996e-01 
  1.674950813211e-01 
  1.575678666614e-01 
  1.476406520016e-01 
  1.480448712125e-01 
  1.381176565528e-01 
  1.285946611039e-01 
  1.253933564285e-01 
  1.219088990767e-01 
  1.184244417248e-01 
  1.365174419604e-01 
  1.330329846086e-01 
  1.476415274923e-01 
  1.276561392480e-01 
  1.304901486625e-01 
  1.333241580770e-01 
  1.475675307718e-01 
  1.504015401863e-01 
  1.674789222956e-01 
  1.340451412396e-01 
  1.284068229660e-01 
  1.227685046924e-01 
  1.349188552912e-01 
  1.292805370176e-01 
  1.357925693429e-01 
  1.748828790521e-01 
  1.717342080050e-01 
  1.685855369579e-01 
  1.545382778918e-01 
  1.513896068447e-01 
  1.341936767315e-01 
  9.480775473238e-04 
  7.937738327711e-02 
  1.578066890069e-01 
  1.104469630319e-03 
  7.953377536011e-02 
  1.260861713315e-03 
  1.708316499772e-01 
  1.634345673439e-01 
  1.560374847105e-01 
  1.585455341308e-01 
  1.511484514975e-01 
  1.462594182845e-01 
  1.568550931371e-01 
  1.635984288483e-01 
  1.703417645594e-01 
  1.657102131928e-01 
  1.724535489039e-01 
  1.745653332485e-01 
  1.456259782174e-01 
  1.510248875679e-01 
  1.564237969184e-01 
  7.415926648964e-02 
  7.955817584014e-02 
  2.692554761858e-03 
  1.692343764834e-01 
  1.586816551385e-01 
  1.481289337935e-01 
  1.590559455430e-01 
  1.485032241981e-01 
  1.488775146026e-01 
  1.685702928279e-01 
  1.624730925881e-01 
  1.563758923483e-01 
  1.712122682464e-01 
  1.651150680066e-01 
  1.738542436648e-01 
  1.735264014834e-01 
  1.542665889406e-01 
  1.350067763978e-01 
  1.568029579402e-01 
  1.375431453974e-01 
  1.400795143969e-01 
  1.356848402535e-01 
  1.357643516326e-01 
  1.358438630117e-01 
  1.386712338937e-01 
  1.387507452728e-01 
  1.416576275339e-01 
  1.248836340152e-01 
  1.371984305910e-01 
  1.495132271668e-01 
  1.362035279953e-01 
  1.485183245711e-01 
  1.475234219754e-01 
 -7.950466908257e-04 
  2.568258642640e-02 
  5.216021954363e-02 
  9.656836201640e-04 
  2.744331673739e-02 
  2.726413931154e-03 
  5.148977719458e-02 
  6.918221799696e-02 
  8.687465879933e-02 
  7.184212060009e-02 
  8.953456140246e-02 
  9.219446400559e-02 
  1.204250313629e-01 
  6.343299197513e-02 
  6.440952587398e-03 
  5.973700576949e-02 
  2.744966381764e-03 
 -9.510198238703e-04 
 -1.097538772704e-03 
  4.539942756725e-03 
  1.017742428615e-02 
  1.395585157987e-02 
  1.959333310930e-02 
  2.900924193244e-02 
  1.989945366478e-04 
 -9.059304000509e-04 
 -2.010855336750e-03 
  2.444400617400e-02 
  2.333908123730e-02 
  4.868901781135e-02 
  1.132508027767e-01 
  5.828321408597e-02 
  3.315625395224e-03 
  9.319682162016e-02 
  3.822923292941e-02 
  7.314284046360e-02 
  5.196825389113e-02 
  7.284798070221e-02 
  9.372770751329e-02 
  2.777274667436e-02 
  4.865247348545e-02 
  3.577239457600e-03 
 -2.281004155002e-03 
  1.343769698957e-02 
  2.915639813414e-02 
  2.317456896046e-02 
  3.889327010503e-02 
  4.863014207593e-02 
  1.250875413809e-03 
  1.291771724780e-03 
  1.332668035750e-03 
  7.434376274840e-02 
  7.438465905938e-02 
  1.474366500830e-01 
  1.548714144112e-03 
  8.001523645355e-02 
  1.584817587630e-01 
  1.578723316925e-03 
  8.004524562636e-02 
  1.608732489737e-03 
  1.440680956031e-01 
  7.607740638304e-02 
  8.086717163003e-03 
  1.348056909149e-01 
  6.681500169485e-02 
  1.255432862267e-01 
  6.765798453923e-04 
  4.872323998680e-02 
  9.676990012820e-02 
  1.773421023114e-03 
  4.982008116452e-02 
  2.870262200836e-03 
  2.967764056269e-03 
  6.397170919738e-02 
  1.249756543385e-01 
  7.468116459746e-02 
  1.356851097386e-01 
  1.463945651387e-01 
  1.364239878746e-01 
  7.124178842549e-02 
  6.059588976410e-03 
  1.366673977208e-01 
  7.148519827167e-02 
  1.369108075669e-01 
  1.075405894879e-01 
  5.459982830807e-02 
  1.659067128239e-03 
  5.484666187666e-02 
  1.905900696824e-03 
  2.152734265410e-03 
  4.744765182449e-03 
  5.007605283827e-02 
  9.540734049409e-02 
  6.444848157073e-02 
  1.097797692265e-01 
  1.241521979590e-01 
  9.351439575576e-02 
  1.063046407922e-01 
  1.190948858286e-01 
  1.090766429592e-01 
  1.218668879956e-01 
  1.246388901626e-01 
  1.252464490680e-01 
  6.568620646245e-02 
  6.125963856939e-03 
  1.301182235618e-01 
  7.055798095632e-02 
  1.349899980557e-01 
  1.727185172289e-01 
  1.563673297101e-01 
  1.400161421912e-01 
  1.550611624963e-01 
  1.387099749775e-01 
  1.374038077638e-01 
  9.242881648135e-02 
  8.957665059239e-02 
  8.672448470344e-02 
  1.058508570666e-01 
  1.029986911776e-01 
  1.192728976518e-01 
  8.299626148132e-04 
  2.304815542453e-03 
  3.779668470093e-03 
  6.432036347632e-02 
  6.579521640396e-02 
  1.278107643378e-01 
  9.102777450353e-03 
  4.320725403470e-03 
 -4.613266434137e-04 
  4.028186659226e-03 
 -7.538653876574e-04 
 -1.046404131901e-03 
  1.275588695770e-01 
  1.277080760891e-01 
  1.278572826013e-01 
  1.125067740006e-01 
  1.126559805128e-01 
  9.745467842419e-02 
  1.320322414289e-01 
  1.385501801985e-01 
  1.450681189681e-01 
  1.394330152789e-01 
  1.459509540485e-01 
  1.468337891288e-01 
  1.444858778461e-01 
  1.369492612982e-01 
  1.294126447503e-01 
  1.377097795167e-01 
  1.301731629688e-01 
  1.309336811873e-01 
  1.279133097329e-01 
  1.365257451196e-01 
  1.451381805063e-01 
  1.286155996466e-01 
  1.372280350333e-01 
  1.293178895604e-01 
  1.308585822114e-01 
  1.305141714066e-01 
  1.301697606018e-01 
  1.161853036729e-01 
  1.158408928681e-01 
  1.015120251343e-01 
  2.474475011425e-02 
  1.447070331594e-02 
  4.196656517629e-03 
  8.494057420840e-02 
  7.466652741009e-02 
  1.451363983025e-01 
  1.271730086142e-01 
  1.062470154482e-01 
  8.532102228218e-02 
  1.125989210248e-01 
  9.167292785881e-02 
  9.802483343545e-02 
  1.272722297497e-01 
  1.275798870849e-01 
  1.278875444201e-01 
  1.055704122738e-01 
  1.058780696090e-01 
  8.386859479793e-02 
  6.816973123114e-02 
  8.281825252054e-02 
  9.746677380993e-02 
  7.716097455575e-02 
  9.180949584515e-02 
  8.615221788036e-02 
  9.397526908405e-02 
  8.057969866422e-02 
  6.718412824440e-02 
  7.490565899382e-02 
  6.151008857399e-02 
  5.583604890358e-02 
  9.627258064796e-02 
  9.451323195943e-02 
  9.275388327090e-02 
  1.016236221820e-01 
  9.986427349348e-02 
  1.069746637161e-01 
  9.235874549835e-02 
  9.445978595703e-02 
  9.656082641571e-02 
  8.024729988380e-02 
  8.234834034248e-02 
  6.813585426925e-02 
  1.224479587954e-01 
  1.147606094405e-01 
  1.070732600855e-01 
  1.229380124272e-01 
  1.152506630722e-01 
  1.234280660590e-01 
  9.738805403817e-02 
  1.018442090539e-01 
  1.063003640696e-01 
  1.122364105299e-01 
  1.166925655456e-01 
  1.270847670216e-01 
  6.760593930926e-02 
  6.100296850303e-02 
  5.439999769680e-02 
  4.791283633776e-02 
  4.130986553153e-02 
  2.821973336626e-02 
  6.767340745216e-02 
  7.712278877245e-02 
  8.657217009273e-02 
  6.141282061415e-02 
  7.086220193444e-02 
  5.515223377614e-02 
  8.618092479746e-02 
  7.737430690246e-02 
  6.856768900746e-02 
  7.075778308382e-02 
  6.195116518882e-02 
  5.533464137018e-02 
  1.267104521261e-01 
  1.169063058852e-01 
  1.071021596443e-01 
  1.195733663007e-01 
  1.097692200598e-01 
  1.124362804754e-01 
  1.001653916584e-01 
  9.672201796748e-02 
  9.327864427654e-02 
  7.833587099007e-02 
  7.489249729913e-02 
  5.650635032173e-02 
  1.007704956641e-01 
  1.151839407970e-01 
  1.295973859299e-01 
  9.762966296100e-02 
  1.120431080939e-01 
  9.448883025788e-02 
  5.566094227188e-02 
  6.352163848939e-02 
  7.138233470689e-02 
  2.793829618186e-02 
  3.579899239936e-02 
  2.156500918306e-04 
  7.301395855886e-02 
  6.402339151936e-02 
  5.503282447985e-02 
  8.396232942029e-02 
  7.497176238078e-02 
  9.491070028172e-02 
  1.184515302135e-01 
  6.144846191790e-02 
  4.445393622305e-03 
  5.936730028042e-02 
  2.364231984828e-03 
  2.830703473506e-04 
  1.562829663316e-02 
  8.369852826042e-03 
  1.111409018921e-03 
  7.735538035963e-02 
  7.009693655251e-02 
  1.390824640861e-01 
  9.653334774173e-02 
  1.009087095316e-01 
  1.052840713215e-01 
  8.535184338361e-02 
  8.972720517347e-02 
  7.417033902548e-02 
  1.273940951889e-01 
  6.304702609929e-02 
 -1.300042990347e-03 
  7.163731978310e-02 
  7.290250693458e-03 
  1.588054437726e-02 
  1.094796154273e-01 
  1.155319385548e-01 
  1.215842616824e-01 
  1.097818132916e-01 
  1.158341364192e-01 
  1.100840111560e-01 
  1.214184692394e-01 
  1.163525103628e-01 
  1.112865514863e-01 
  1.148088423673e-01 
  1.097428834908e-01 
  1.081992154952e-01 
  1.011300589743e-01 
  1.063453670141e-01 
  1.115606750539e-01 
  1.070832008257e-01 
  1.122985088655e-01 
  1.130363426771e-01 
  1.093417361191e-01 
  1.057645671019e-01 
  1.021873980846e-01 
  1.096016747500e-01 
  1.060245057327e-01 
  1.098616133809e-01 
  1.146936000490e-01 
  1.139359224448e-01 
  1.131782448405e-01 
  1.215488594777e-01 
  1.207911818735e-01 
  1.284041189065e-01 
  1.033722916447e-01 
  1.071932013648e-01 
  1.110141110849e-01 
  8.877026819359e-02 
  9.259117791373e-02 
  7.416824474252e-02 
  1.216253781467e-01 
  1.267979852259e-01 
  1.319705923051e-01 
  1.167891950693e-01 
  1.219618021485e-01 
  1.119530119919e-01 
  1.113079246839e-01 
  1.072718009903e-01 
  1.032356772967e-01 
  1.046757550810e-01 
  1.006396313874e-01 
  9.804358547809e-02 
  1.278412358798e-01 
  1.200453576804e-01 
  1.122494794811e-01 
  1.124984653990e-01 
  1.047025871997e-01 
  9.715569491825e-02 
  1.169306423539e-01 
  1.222654214809e-01 
  1.276002006079e-01 
  6.258162574348e-02 
  6.791640487047e-02 
  8.232609133035e-03 
  1.066357163863e-01 
  1.000914027249e-01 
  9.354708906343e-02 
  1.150049723542e-01 
  1.084606586927e-01 
  1.233742283221e-01 
  4.801523018208e-02 
  9.574805239724e-02 
  1.434808746124e-01 
  8.584408627818e-02 
  1.335769084933e-01 
  1.236729423743e-01 
  9.795225561228e-03 
  4.674195319974e-03 
 -4.468349212813e-04 
  1.934819559696e-02 
  1.422716535570e-02 
  2.890116563268e-02 
  8.957702678235e-03 
  3.907633767679e-03 
 -1.142435142878e-03 
  4.363553513166e-03 
 -6.865153973897e-04 
 -2.305956519018e-04 
  2.933258435772e-02 
  1.512780617853e-02 
  9.230279993313e-04 
  4.199672554182e-02 
  2.779194736262e-02 
  5.466086672592e-02 
  8.488707614122e-02 
  7.016901684930e-02 
  5.545095755739e-02 
  4.218446000942e-02 
  2.746640071751e-02 
 -5.181561223670e-04 
  8.727815842556e-02 
  1.058398280808e-01 
  1.244014977361e-01 
  9.081000614757e-02 
  1.093716758028e-01 
  9.434185386957e-02 
  8.634345234771e-02 
  9.068965530705e-02 
  9.503585826639e-02 
  7.101987215759e-02 
  7.536607511693e-02 
  5.569629196747e-02 
  8.187792411799e-04 
  1.514364823739e-02 
  2.946851723360e-02 
  1.628676581296e-04 
  1.448773665434e-02 
 -4.930439249208e-04 
  6.752530301304e-02 
  4.816786243700e-02 
  2.881042186096e-02 
  6.136544673231e-02 
  4.200800615628e-02 
  5.520559045159e-02 
 -5.082714816673e-04 
  1.706169693665e-04 
  8.495054204002e-04 
  4.229326334236e-02 
  4.297215179339e-02 
  8.509479816638e-02 
  1.396773917864e-01 
  7.269951953119e-02 
  5.721647276020e-03 
  1.326781286467e-01 
  6.570025639148e-02 
  1.256788655069e-01 
  1.216789207448e-01 
  9.665250426624e-02 
  7.162608778770e-02 
  1.179328956271e-01 
  9.290647914854e-02 
  1.141868705094e-01 
  5.650355959903e-02 
  2.940588081984e-02 
  2.308202040652e-03 
  5.990310506972e-02 
  3.280542629053e-02 
  6.330265054040e-02 
  1.293604549146e-01 
  6.504560073378e-02 
  7.307465529452e-04 
  6.628371089112e-02 
  1.968856710292e-03 
  3.206966867638e-03 
  1.259288987360e-01 
  6.252156506203e-02 
 -8.857686119387e-04 
  6.395874566117e-02 
  5.514119872010e-04 
  1.988592586341e-03 
  1.212295346110e-01 
  6.290898299227e-02 
  4.588431373514e-03 
  1.124241321509e-01 
  5.410358053214e-02 
  1.036187296908e-01 
  8.512383942002e-02 
  4.253852570077e-02 
 -4.678801847992e-05 
  1.044762367655e-01 
  6.189092304620e-02 
  1.238286341109e-01 
  1.036701986695e-01 
  1.138912263451e-01 
  1.241122540207e-01 
  1.123650008744e-01 
  1.225860285500e-01 
  1.210598030793e-01 
  1.513867662326e-01 
  7.641793195695e-02 
  1.449097681284e-03 
  7.688046432830e-02 
  1.911630052637e-03 
  2.374162423991e-03 
  1.237309045557e-01 
  1.242443544519e-01 
  1.247578043480e-01 
  1.360724852784e-01 
  1.365859351746e-01 
  1.484140660011e-01 
  1.235196106560e-01 
  1.241429277954e-01 
  1.247662449348e-01 
  1.049373436794e-01 
  1.055606608188e-01 
  8.635507670288e-02 
  1.314339190281e-01 
  1.284006741093e-01 
  1.253674291904e-01 
  1.305560505079e-01 
  1.275228055891e-01 
  1.296781819877e-01 
  1.267023215072e-01 
  1.203520371425e-01 
  1.140017527777e-01 
  1.283811366094e-01 
  1.220308522446e-01 
  1.300599517116e-01 
  1.318010932037e-01 
  1.267118418901e-01 
  1.216225905765e-01 
  1.397818971040e-01 
  1.346926457904e-01 
  1.477627010044e-01 
  1.486914708846e-01 
  1.591025829379e-01 
  1.695136949912e-01 
  1.398211577178e-01 
  1.502322697711e-01 
  1.309508445510e-01 
  1.485053173851e-01 
  1.370956775054e-01 
  1.256860376257e-01 
  1.484850952248e-01 
  1.370754553451e-01 
  1.484648730645e-01 
  1.237436615841e-01 
  1.355451797543e-01 
  1.473466979245e-01 
  1.228081396313e-01 
  1.346096578014e-01 
  1.218726176784e-01 
  1.485411000603e-01 
  1.514349484240e-01 
  1.543287967878e-01 
  1.600171753648e-01 
  1.629110237285e-01 
  1.714932506693e-01 
  1.487634223144e-01 
  1.382639900661e-01 
  1.277645578178e-01 
  7.683300241659e-02 
  6.633357016828e-02 
  4.902582518784e-03 
  1.347409364015e-01 
  1.524025026357e-01 
  1.700640688698e-01 
  1.536774739214e-01 
  1.713390401555e-01 
  1.726140114412e-01 
  1.697753662311e-01 
  1.516965724436e-01 
  1.336177786560e-01 
  1.498916800451e-01 
  1.318128862575e-01 
  1.300079938590e-01 
  1.421068039434e-01 
  1.379743668171e-01 
  1.338419296908e-01 
  1.429579590805e-01 
  1.388255219542e-01 
  1.438091142177e-01 
  1.323736079304e-01 
  1.373074497591e-01 
  1.422412915877e-01 
  1.285059480700e-01 
  1.334397898987e-01 
  1.246382882097e-01 
  1.718571464405e-01 
  1.714488868678e-01 
  1.710406272952e-01 
  1.633247177289e-01 
  1.629164581563e-01 
  1.547922890173e-01 
  1.487591560136e-01 
  1.595711578509e-01 
  1.703831596882e-01 
  1.484608171950e-01 
  1.592728190324e-01 
  1.481624783765e-01 
  4.816506913724e-03 
  7.932799736803e-02 
  1.538394878223e-01 
  7.727437288057e-02 
  1.517858633349e-01 
  1.497322388474e-01 