# vtk DataFile Version 2
NuDG++ 2D simulation
ASCII
DATASET UNSTRUCTURED_GRID

POINTS 2244 double
 -1.656250060000e-01  -2.000000030000e-01  0.0
 -1.828125045000e-01  -1.772221997500e-01  0.0
 -2.000000030000e-01  -1.544443965000e-01  0.0
 -1.828125045000e-01  -2.000000030000e-01  0.0
 -2.000000030000e-01  -1.772221997500e-01  0.0
 -2.000000030000e-01  -2.000000030000e-01  0.0
 -6.428571790000e-02  -1.700000018000e-01  0.0
 -8.058035746000e-02  -1.850000024000e-01  0.0
 -9.687499702000e-02  -2.000000030000e-01  0.0
 -6.339285895000e-02  -1.850000024000e-01  0.0
 -7.968749851000e-02  -2.000000030000e-01  0.0
 -6.250000000000e-02  -2.000000030000e-01  0.0
 -2.000000030000e-01  -1.544443965000e-01  0.0
 -1.750000045000e-01  -1.379364989500e-01  0.0
 -1.500000060000e-01  -1.214286014000e-01  0.0
 -2.000000030000e-01  -1.316666491500e-01  0.0
 -1.750000045000e-01  -1.151587516000e-01  0.0
 -2.000000030000e-01  -1.088889018000e-01  0.0
 -1.500000060000e-01  -1.214286014000e-01  0.0
 -1.750000045000e-01  -1.379364989500e-01  0.0
 -2.000000030000e-01  -1.544443965000e-01  0.0
 -1.500000060000e-01  -1.457143016000e-01  0.0
 -1.750000045000e-01  -1.622221991500e-01  0.0
 -1.500000060000e-01  -1.700000018000e-01  0.0
 -1.500000060000e-01  -7.285714149000e-02  0.0
 -1.750000045000e-01  -9.087302164500e-02  0.0
 -2.000000030000e-01  -1.088889018000e-01  0.0
 -1.500000060000e-01  -9.714287144500e-02  0.0
 -1.750000045000e-01  -1.151587516000e-01  0.0
 -1.500000060000e-01  -1.214286014000e-01  0.0
  1.832975030000e+00  -4.625000060000e-02  0.0
  1.853987515000e+00  -1.231250018000e-01  0.0
  1.875000000000e+00  -2.000000030000e-01  0.0
  1.916487515000e+00  -7.187499851000e-02  0.0
  1.937500000000e+00  -1.487499997100e-01  0.0
  2.000000000000e+00  -9.749999642000e-02  0.0
 -1.500000060000e-01  -1.700000018000e-01  0.0
 -1.360000037000e-01  -1.525000036000e-01  0.0
 -1.220000014000e-01  -1.350000054000e-01  0.0
 -1.500000060000e-01  -1.457143016000e-01  0.0
 -1.360000037000e-01  -1.282143034000e-01  0.0
 -1.500000060000e-01  -1.214286014000e-01  0.0
  2.849999964000e-01  -2.333333530000e-02  0.0
  2.837499976000e-01  -8.166666795000e-02  0.0
  2.824999988000e-01  -1.400000006000e-01  0.0
  3.174999952000e-01  -4.666666780000e-02  0.0
  3.162499964000e-01  -1.050000004500e-01  0.0
  3.499999940000e-01  -7.000000030000e-02  0.0
 -1.071429029000e-01  -1.700000018000e-01  0.0
 -8.571431040000e-02  -1.700000018000e-01  0.0
 -6.428571790000e-02  -1.700000018000e-01  0.0
 -9.857145324000e-02  -1.525000036000e-01  0.0
 -7.714286074000e-02  -1.525000036000e-01  0.0
 -9.000000358000e-02  -1.350000054000e-01  0.0
 -1.312499940000e-01  -2.000000030000e-01  0.0
 -1.191964484500e-01  -1.850000024000e-01  0.0
 -1.071429029000e-01  -1.700000018000e-01  0.0
 -1.406250000000e-01  -1.850000024000e-01  0.0
 -1.285714544500e-01  -1.700000018000e-01  0.0
 -1.500000060000e-01  -1.700000018000e-01  0.0
 -1.220000014000e-01  -1.350000054000e-01  0.0
 -1.060000024900e-01  -1.350000054000e-01  0.0
 -9.000000358000e-02  -1.350000054000e-01  0.0
 -1.185000017500e-01  -1.175000034500e-01  0.0
 -1.025000028400e-01  -1.175000034500e-01  0.0
 -1.150000021000e-01  -1.000000015000e-01  0.0
 -9.000000358000e-02  -1.350000054000e-01  0.0
 -1.060000024900e-01  -1.350000054000e-01  0.0
 -1.220000014000e-01  -1.350000054000e-01  0.0
 -9.857145324000e-02  -1.525000036000e-01  0.0
 -1.145714521500e-01  -1.525000036000e-01  0.0
 -1.071429029000e-01  -1.700000018000e-01  0.0
 -7.778175920000e-02  -9.192386270000e-02  0.0
 -9.639088065000e-02  -9.596193210000e-02  0.0
 -1.150000021000e-01  -1.000000015000e-01  0.0
 -8.389088139000e-02  -1.134619340500e-01  0.0
 -1.025000028400e-01  -1.175000034500e-01  0.0
 -9.000000358000e-02  -1.350000054000e-01  0.0
 -1.220000014000e-01  -1.350000054000e-01  0.0
 -1.185000017500e-01  -1.175000034500e-01  0.0
 -1.150000021000e-01  -1.000000015000e-01  0.0
 -1.360000037000e-01  -1.282143034000e-01  0.0
 -1.325000040500e-01  -1.107143014500e-01  0.0
 -1.500000060000e-01  -1.214286014000e-01  0.0
 -7.778175920000e-02  -9.192386270000e-02  0.0
 -8.389088139000e-02  -1.134619340500e-01  0.0
 -9.000000358000e-02  -1.350000054000e-01  0.0
 -6.639088876500e-02  -1.022535823500e-01  0.0
 -7.250001095500e-02  -1.237916537000e-01  0.0
 -5.500001833000e-02  -1.125833020000e-01  0.0
 -1.071429029000e-01  -1.700000018000e-01  0.0
 -1.145714521500e-01  -1.525000036000e-01  0.0
 -1.220000014000e-01  -1.350000054000e-01  0.0
 -1.285714544500e-01  -1.700000018000e-01  0.0
 -1.360000037000e-01  -1.525000036000e-01  0.0
 -1.500000060000e-01  -1.700000018000e-01  0.0
  6.250000093000e-03  -2.000000030000e-01  0.0
  4.062500153650e-02  -2.000000030000e-01  0.0
  7.500000298000e-02  -2.000000030000e-01  0.0
  1.383928512150e-02  -1.850000024000e-01  0.0
  4.821428656500e-02  -1.850000024000e-01  0.0
  2.142857015000e-02  -1.700000018000e-01  0.0
 -1.500000060000e-01  -7.285714149000e-02  0.0
 -1.500000060000e-01  -9.714287144500e-02  0.0
 -1.500000060000e-01  -1.214286014000e-01  0.0
 -1.325000040500e-01  -8.642857149500e-02  0.0
 -1.325000040500e-01  -1.107143014500e-01  0.0
 -1.150000021000e-01  -1.000000015000e-01  0.0
 -2.000000030000e-01  -6.333333254000e-02  0.0
 -1.750000045000e-01  -6.809523701500e-02  0.0
 -1.500000060000e-01  -7.285714149000e-02  0.0
 -1.750000045000e-01  -4.380952660000e-02  0.0
 -1.500000060000e-01  -4.857143107500e-02  0.0
 -1.500000060000e-01  -2.428572066000e-02  0.0
 -2.000000030000e-01  -6.333333254000e-02  0.0
 -2.000000030000e-01  -8.611111717000e-02  0.0
 -2.000000030000e-01  -1.088889018000e-01  0.0
 -1.750000045000e-01  -6.809523701500e-02  0.0
 -1.750000045000e-01  -9.087302164500e-02  0.0
 -1.500000060000e-01  -7.285714149000e-02  0.0
 -2.000000030000e-01  -6.333333254000e-02  0.0
 -1.750000045000e-01  -4.380952660000e-02  0.0
 -1.500000060000e-01  -2.428572066000e-02  0.0
 -2.000000030000e-01  -4.055555630500e-02  0.0
 -1.750000045000e-01  -2.103175036500e-02  0.0
 -2.000000030000e-01  -1.777778007000e-02  0.0
 -1.500000060000e-01  -2.428572066000e-02  0.0
 -1.500000060000e-01  -4.857143107500e-02  0.0
 -1.500000060000e-01  -7.285714149000e-02  0.0
 -1.281259023000e-01  -2.896608505500e-02  0.0
 -1.281259023000e-01  -5.325179547000e-02  0.0
 -1.062517986000e-01  -3.364644945000e-02  0.0
 -1.099999994000e-01   1.996667010000e-08  0.0
 -1.300000027000e-01  -1.214285034666e-02  0.0
 -1.500000060000e-01  -2.428572066000e-02  0.0
 -1.081258990000e-01  -1.682321474166e-02  0.0
 -1.281259023000e-01  -2.896608505500e-02  0.0
 -1.062517986000e-01  -3.364644945000e-02  0.0
 -1.500000060000e-01  -2.428572066000e-02  0.0
 -1.500000060000e-01   0.000000000000e+00  0.0
 -1.500000060000e-01   2.428572066000e-02  0.0
 -1.750000045000e-01  -2.103175036500e-02  0.0
 -1.750000045000e-01   3.253970295000e-03  0.0
 -2.000000030000e-01  -1.777778007000e-02  0.0
 -1.500000060000e-01  -7.285714149000e-02  0.0
 -1.226314045700e-01  -6.892856210000e-02  0.0
 -9.526280314000e-02  -6.499998271000e-02  0.0
 -1.281259023000e-01  -5.325179547000e-02  0.0
 -1.007573008700e-01  -4.932321608000e-02  0.0
 -1.062517986000e-01  -3.364644945000e-02  0.0
  3.499999940000e-01   1.400000006000e-01  0.0
  4.021931737500e-01   1.224999986500e-01  0.0
  4.543863535000e-01   1.049999967000e-01  0.0
  4.187500029500e-01   1.749999970000e-01  0.0
  4.709431827000e-01   1.574999950500e-01  0.0
  4.875000119000e-01   2.099999934000e-01  0.0
 -7.101409137000e-02  -4.349999130000e-02  0.0
 -8.313844725500e-02  -5.424998700500e-02  0.0
 -9.526280314000e-02  -6.499998271000e-02  0.0
 -6.449843011500e-02  -5.250913650000e-02  0.0
 -7.662278600000e-02  -6.325913220500e-02  0.0
 -5.798276886000e-02  -6.151828170000e-02  0.0
 -9.526280314000e-02  -6.499998271000e-02  0.0
 -1.226314045700e-01  -6.892856210000e-02  0.0
 -1.500000060000e-01  -7.285714149000e-02  0.0
 -1.051314026200e-01  -8.249999210500e-02  0.0
 -1.325000040500e-01  -8.642857149500e-02  0.0
 -1.150000021000e-01  -1.000000015000e-01  0.0
 -6.181925908000e-02  -1.656441018000e-02  0.0
 -7.051259093000e-02  -1.954082492500e-02  0.0
 -7.920592278000e-02  -2.251723967000e-02  0.0
 -5.862244405000e-02  -2.428220026000e-02  0.0
 -6.731577590000e-02  -2.725861500500e-02  0.0
 -5.542562902000e-02  -3.199999034000e-02  0.0
 -7.920592278000e-02  -2.251723967000e-02  0.0
 -9.272886069000e-02  -2.808184456000e-02  0.0
 -1.062517986000e-01  -3.364644945000e-02  0.0
 -7.511000707500e-02  -3.300861548500e-02  0.0
 -8.863294498500e-02  -3.857322037500e-02  0.0
 -7.101409137000e-02  -4.349999130000e-02  0.0
 -7.101409137000e-02  -4.349999130000e-02  0.0
 -6.321986019500e-02  -3.774999082000e-02  0.0
 -5.542562902000e-02  -3.199999034000e-02  0.0
 -7.511000707500e-02  -3.300861548500e-02  0.0
 -6.731577590000e-02  -2.725861500500e-02  0.0
 -7.920592278000e-02  -2.251723967000e-02  0.0
 -7.920592278000e-02  -2.251723967000e-02  0.0
 -9.460296109000e-02  -1.125860985166e-02  0.0
 -1.099999994000e-01   1.996667010000e-08  0.0
 -9.272886069000e-02  -2.808184456000e-02  0.0
 -1.081258990000e-01  -1.682321474166e-02  0.0
 -1.062517986000e-01  -3.364644945000e-02  0.0
 -7.778175920000e-02  -9.192386270000e-02  0.0
 -6.788226403000e-02  -7.672107220000e-02  0.0
 -5.798276886000e-02  -6.151828170000e-02  0.0
 -8.652228117000e-02  -7.846192270500e-02  0.0
 -7.662278600000e-02  -6.325913220500e-02  0.0
 -9.526280314000e-02  -6.499998271000e-02  0.0
 -7.101409137000e-02  -4.349999130000e-02  0.0
 -8.863294498500e-02  -3.857322037500e-02  0.0
 -1.062517986000e-01  -3.364644945000e-02  0.0
 -8.313844725500e-02  -5.424998700500e-02  0.0
 -1.007573008700e-01  -4.932321608000e-02  0.0
 -9.526280314000e-02  -6.499998271000e-02  0.0
 -7.778175920000e-02  -9.192386270000e-02  0.0
 -8.652228117000e-02  -7.846192270500e-02  0.0
 -9.526280314000e-02  -6.499998271000e-02  0.0
 -9.639088065000e-02  -9.596193210000e-02  0.0
 -1.051314026200e-01  -8.249999210500e-02  0.0
 -1.150000021000e-01  -1.000000015000e-01  0.0
[...]
POINT_DATA 2244
SCALARS field1 double 1
LOOKUP_TABLE default
  2.265158560550e-03 
  2.676477180142e-02 
  5.126438504230e-02 
  1.413533340710e-03 
  2.591314658158e-02 
  5.619081208693e-04 
  1.116704747637e-01 
  5.658077898641e-02 
  1.491083209076e-03 
  5.639070301884e-02 
  1.301007241509e-03 
  1.110931273941e-03 
  5.001725079172e-02 
  6.462009836408e-02 
  7.922294593644e-02 
  6.940544848505e-02 
  8.400829605741e-02 
  8.879364617838e-02 
  8.030677985258e-02 
  6.440755860469e-02 
  4.850833735679e-02 
  6.944370540799e-02 
  5.354448416010e-02 
  5.858063096340e-02 
  1.065899680791e-01 
  9.775676506274e-02 
  8.892356204637e-02 
  9.364321171778e-02 
  8.481000870141e-02 
  8.069645535644e-02 
  1.241936266146e-01 
  8.572972715307e-02 
  4.726582769152e-02 
  1.189681738444e-01 
  8.050427438281e-02 
  1.137427210741e-01 
  6.064834986209e-02 
  7.605035511247e-02 
  9.145236036285e-02 
  7.091487590062e-02 
  8.631688115101e-02 
  8.118140193916e-02 
  9.398071905614e-02 
  1.022236607234e-01 
  1.104666023906e-01 
  9.625537300086e-02 
  1.044983146681e-01 
  9.853002694558e-02 
  9.242778271477e-02 
  1.005946891033e-01 
  1.087615954919e-01 
  9.392975036094e-02 
  1.020966567495e-01 
  9.543171800711e-02 
  3.556525281131e-03 
  4.924380097814e-02 
  9.493107667515e-02 
  3.218497091894e-02 
  7.787224661595e-02 
  6.081341655675e-02 
  8.802608849614e-02 
  9.034645463278e-02 
  9.266682076942e-02 
  9.053255860275e-02 
  9.285292473940e-02 
  9.303902870937e-02 
  9.341599911212e-02 
  9.086324004937e-02 
  8.831048098661e-02 
  9.326987393534e-02 
  9.071711487259e-02 
  9.312374875856e-02 
  1.082889554174e-01 
  1.005139052410e-01 
  9.273885506460e-02 
  1.010126008139e-01 
  9.323755063748e-02 
  9.373624621036e-02 
  8.887603962200e-02 
  9.149628969764e-02 
  9.411653977328e-02 
  8.589480528168e-02 
  8.851505535732e-02 
  8.291357094136e-02 
  1.082958047191e-01 
  1.019696371375e-01 
  9.564346955596e-02 
  1.119521953212e-01 
  1.056260277396e-01 
  1.156085859233e-01 
  9.311539226796e-02 
  9.157040235401e-02 
  9.002541244006e-02 
  7.737808268593e-02 
  7.583309277198e-02 
  6.164077310389e-02 
  1.358727984692e-03 
  1.985414831426e-03 
  2.612101678160e-03 
  6.422823828575e-02 
  6.485492513248e-02 
  1.270977485868e-01 
  1.056509407682e-01 
  9.403199948470e-02 
  8.241305820117e-02 
  1.003621487042e-01 
  8.874320742069e-02 
  9.507335664022e-02 
  1.168078171581e-01 
  1.112146830552e-01 
  1.056215489523e-01 
  1.167004477542e-01 
  1.111073136513e-01 
  1.165930783504e-01 
  1.156267647958e-01 
  1.025849757096e-01 
  8.954318662351e-02 
  1.111116231952e-01 
  9.806983410909e-02 
  1.065964815947e-01 
  1.163012820015e-01 
  1.170531618480e-01 
  1.178050416945e-01 
  1.227853256772e-01 
  1.235372055238e-01 
  1.292693693530e-01 
  1.140997634281e-01 
  1.100569269628e-01 
  1.060140904975e-01 
  1.001811108014e-01 
  9.613827433615e-02 
  8.626245817478e-02 
  7.476144585337e-02 
  9.375754841434e-02 
  1.127536509753e-01 
  8.082267295967e-02 
  9.981877552064e-02 
  8.688390006597e-02 
  1.145813757781e-01 
  1.145874277258e-01 
  1.145934796735e-01 
  1.230443215060e-01 
  1.230503734537e-01 
  1.315072672338e-01 
  1.053472960312e-01 
  1.008230102324e-01 
  9.629872443358e-02 
  9.584525414523e-02 
  9.132096834642e-02 
  8.634321225925e-02 
  1.153983283239e-01 
  1.162683718800e-01 
  1.171384154361e-01 
  7.505924583336e-02 
  7.592928938949e-02 
  3.472016334285e-02 
  7.789560037250e-02 
  8.797151564285e-02 
  9.804743091320e-02 
  9.142500998360e-02 
  1.015009252540e-01 
  1.049544195947e-01 
  9.715638993397e-02 
  1.010282596300e-01 
  1.049001293260e-01 
  9.629319514848e-02 
  1.001650648445e-01 
  9.543000036298e-02 
  2.613551147340e-02 
  4.391355571001e-02 
  6.169159994662e-02 
  3.540271907442e-02 
  5.318076331104e-02 
  4.466992667545e-02 
  6.154079033602e-02 
  7.378220381575e-02 
  8.602361729547e-02 
  6.945113579966e-02 
  8.169254927939e-02 
  7.736148126330e-02 
  7.749400054662e-02 
  6.143595823154e-02 
  4.537791591645e-02 
  6.934258577102e-02 
  5.328454345594e-02 
  6.119117099542e-02 
  6.158903964829e-02 
  6.861330266891e-02 
  7.563756568954e-02 
  7.398610356628e-02 
  8.101036658690e-02 
  8.638316748427e-02 
  1.083720472467e-01 
  1.067661336528e-01 
  1.051602200589e-01 
  1.032543288224e-01 
  1.016484152285e-01 
  9.813661039809e-02 
  7.797485154877e-02 
  8.178903991691e-02 
  8.560322828505e-02 
  8.775767353131e-02 
  9.157186189945e-02 
  9.754049551385e-02 
  1.079373415711e-01 
  1.031224951646e-01 
  9.830764875799e-02 
  1.011626231743e-01 
  9.634777676769e-02 
  9.438790477739e-02 
  6.150753588549e-02 
  4.368183747319e-02 
  2.585613906090e-02 
  5.517486137718e-02 
  3.734916296489e-02 
  4.884218686888e-02 
  1.141727189249e-01 
  1.054014045749e-01 
  9.663009022486e-02 
  1.115490890115e-01 
  1.027777746615e-01 
  1.089254590982e-01 
  1.116008204417e-01 
  1.137676626111e-01 
  1.159345047806e-01 
  1.013605789445e-01 
  1.035274211140e-01 
  9.112033744739e-02 
  1.181211496971e-01 
  1.196077726231e-01 
  1.210943955491e-01 
  1.210823407267e-01 
  1.225689636526e-01 
  1.240435317562e-01 
  1.162002269728e-01 
  1.144044303817e-01 
  1.126086337905e-01 
  1.127896504654e-01 
  1.109938538743e-01 
  1.093790739580e-01 
  1.076352252781e-01 
  1.179539510336e-01 
  1.282726767891e-01 
  1.064069258488e-01 
  1.167256516043e-01 
  1.051786264195e-01 
  1.286490463819e-01 
  1.181296296768e-01 
  1.076102129718e-01 
  1.214525603812e-01 
  1.109331436762e-01 
  1.142560743805e-01 
  1.476640252710e-01 
  1.390709433330e-01 
  1.304778613949e-01 
  1.300934126439e-01 
  1.215003307058e-01 
  1.125228000167e-01 
  1.128144698620e-01 
  1.087036901159e-01 
  1.045929103697e-01 
  1.216311979923e-01 
  1.175204182461e-01 
  1.304479261225e-01 
  1.116940861405e-01 
  1.141213643492e-01 
  1.165486425578e-01 
  1.296280545915e-01 
  1.320553328001e-01 
  1.475620230424e-01 
  1.172548466409e-01 
  1.134941845445e-01 
  1.097335224480e-01 
  1.191101251072e-01 
  1.153494630108e-01 
  1.209654035736e-01 
  1.536665400348e-01 
  1.511119179325e-01 
  1.485572958302e-01 
  1.355113745463e-01 
  1.329567524440e-01 
  1.173562090579e-01 
  8.812777614285e-04 
  7.224702583938e-02 
  1.436127739173e-01 
  1.107648472195e-03 
  7.247339655015e-02 
  1.334019182962e-03 
  1.505901532025e-01 
  1.461304354199e-01 
  1.416707176373e-01 
  1.413836784025e-01 
  1.369239606199e-01 
  1.321772036026e-01 
  1.424179623424e-01 
  1.462736643050e-01 
  1.501293662676e-01 
  1.479330124040e-01 
  1.517887143667e-01 
  1.534480624657e-01 
  1.316085073617e-01 
  1.368708408419e-01 
  1.421331743221e-01 
  6.708055208070e-02 
  7.234288556092e-02 
  2.552596799747e-03 
  1.492310758226e-01 
  1.415332101970e-01 
  1.338353445714e-01 
  1.404159509829e-01 
  1.327180853573e-01 
  1.316008261432e-01 
  1.485537825085e-01 
  1.453167412521e-01 
  1.420796999958e-01 
  1.506746989354e-01 
  1.474376576791e-01 
  1.527956153624e-01 
  1.524093814412e-01 
  1.352705127762e-01 
  1.181316441113e-01 
  1.374217526289e-01 
  1.202828839639e-01 
  1.224341238165e-01 
  1.207381513456e-01 
  1.207910907719e-01 
  1.208440301983e-01 
  1.222129156448e-01 
  1.222658550712e-01 
  1.236876799441e-01 
  1.123883546796e-01 
  1.222696488136e-01 
  1.321509429477e-01 
  1.228483839290e-01 
  1.327296780631e-01 
  1.333084131784e-01 
 -7.209482783603e-04 
  2.302548789110e-02 
  4.677192406056e-02 
  8.672770516755e-04 
  2.461371322114e-02 
  2.455502381711e-03 
  4.618112900792e-02 
  6.152344487535e-02 
  7.686576074279e-02 
  6.452124549313e-02 
  7.986356136056e-02 
  8.286136197834e-02 
  1.082934068035e-01 
  5.737118247505e-02 
  6.448958146579e-03 
  5.371055431554e-02 
  2.788329987072e-03 
 -8.722981724341e-04 
 -9.433936284044e-04 
  4.104283275212e-03 
  9.151960178829e-03 
  1.248206591228e-02 
  1.752974281590e-02 
  2.590752545296e-02 
  1.644859467000e-04 
 -8.100836272215e-04 
 -1.784653201143e-03 
  2.190623431951e-02 
  2.093166474559e-02 
  4.364798269232e-02 
  1.018350604283e-01 
  5.264367290004e-02 
  3.452285371817e-03 
  8.396218998674e-02 
  3.477080245852e-02 
  6.608931954523e-02 
  4.660188284042e-02 
  6.541329009299e-02 
  8.422469734556e-02 
  2.491180501632e-02 
  4.372321226889e-02 
  3.221727192226e-03 
 -2.002438215300e-03 
  1.202716666716e-02 
  2.605677154962e-02 
  2.079433265146e-02 
  3.482393753392e-02 
  4.359110351823e-02 
  1.188025544501e-03 
  1.219931863293e-03 
  1.251838182086e-03 
  6.725061977575e-02 
  6.728252609454e-02 
  1.333132140070e-01 
  1.438194757645e-03 
  7.276722964551e-02 
  1.440962645334e-01 
  1.469237123822e-03 
  7.279827201168e-02 
  1.500279489999e-03 
  1.285229635942e-01 
  6.827771144149e-02 
  8.032459288813e-03 
  1.200925678266e-01 
  5.984731567395e-02 
  1.116621720591e-01 
  6.001192934580e-04 
  4.377887711826e-02 
  8.695763494306e-02 
  1.607780427475e-03 
  4.478653825228e-02 
  2.615441561492e-03 
  2.769117119309e-03 
  5.761741663595e-02 
  1.124657161526e-01 
  6.755394841483e-02 
  1.224022479315e-01 
  1.323387797104e-01 
  1.214778395376e-01 
  6.364648069170e-02 
  5.815121845782e-03 
  1.216961607543e-01 
  6.386480190837e-02 
  1.219144819710e-01 
  9.700028759810e-02 
  4.936740761470e-02 
  1.734527631304e-03 
  4.951131648118e-02 
  1.878436497781e-03 
  2.022345364258e-03 
  4.337257170243e-03 
  4.502532556860e-02 
  8.571339396695e-02 
  5.801579040614e-02 
  9.870385880449e-02 
  1.116943236420e-01 
  8.404902800732e-02 
  9.463623414211e-02 
  1.052234402769e-01 
  9.808144504273e-02 
  1.086686511775e-01 
  1.121138620781e-01 
  1.120658318666e-01 
  5.900787950704e-02 
  5.949927147479e-03 
  1.162047197662e-01 
  6.314676740664e-02 
  1.203436076658e-01 
  1.517331424755e-01 
  1.370482658113e-01 
  1.223633891470e-01 
  1.357943468173e-01 
  1.211094701531e-01 
  1.198555511591e-01 
  8.306952024566e-02 
  7.990138352643e-02 
  7.673324680720e-02 
  9.423710752210e-02 
  9.106897080287e-02 
  1.054046947985e-01 
  7.977514639652e-04 
  2.228908007823e-03 
  3.660064551681e-03 
  5.764876213116e-02 
  5.907991867501e-02 
  1.144997727983e-01 
  8.193023645684e-03 
  3.899888476812e-03 
 -3.932466920610e-04 
  3.622270861874e-03 
 -6.708643069980e-04 
 -9.484819219351e-04 
  1.123183746166e-01 
  1.123883570656e-01 
  1.124583395145e-01 
  9.884562119722e-02 
  9.891560364620e-02 
  8.537286777786e-02 
  1.165290521055e-01 
  1.224650991022e-01 
  1.284011460989e-01 
  1.233147265852e-01 
  1.292507735819e-01 
  1.301004010649e-01 
  1.279309630825e-01 
  1.211470751619e-01 
  1.143631872413e-01 
  1.219516093586e-01 
  1.151677214380e-01 
  1.159722556348e-01 
  1.128938523304e-01 
  1.207547804393e-01 
  1.286157085483e-01 
  1.134362645715e-01 
  1.212971926805e-01 
  1.139786768126e-01 
  1.159516962548e-01 
  1.154764051666e-01 
  1.150011140785e-01 
  1.029341170073e-01 
  1.024588259191e-01 
  8.991653775975e-02 
  2.458065789874e-02 
  1.508648555318e-02 
  5.592313207616e-03 
  7.818518212943e-02 
  6.869100978387e-02 
  1.317897063601e-01 
  1.116749308387e-01 
  9.341287132327e-02 
  7.515081180789e-02 
  9.885031109331e-02 
  8.058825157793e-02 
  8.602569134797e-02 
  1.118437968914e-01 
  1.121457627363e-01 
  1.124477285813e-01 
  9.274668083338e-02 
  9.304864667833e-02 
  7.364956477538e-02 
  6.090672161714e-02 
  7.321284502850e-02 
  8.551896843986e-02 
  6.850708366024e-02 
  8.081320707160e-02 
  7.610744570334e-02 
  8.330656431377e-02 
  7.157848261118e-02 
  5.985040090858e-02 
  6.663404955540e-02 
  5.490596785280e-02 
  4.996153479702e-02 
  8.443854312587e-02 
  8.332735562845e-02 
  8.221616813103e-02 
  8.928226146659e-02 
  8.817107396917e-02 
  9.412597980731e-02 
  8.185070231309e-02 
  8.329144283806e-02 
  8.473218336303e-02 
  7.132645128010e-02 
  7.276719180507e-02 
  6.080220024710e-02 
  1.079913875146e-01 
  1.011545581907e-01 
  9.431772886676e-02 
  1.085083063460e-01 
  1.016714770221e-01 
  1.090252251773e-01 
  8.541625434115e-02 
  8.949022769294e-02 
  9.356420104474e-02 
  9.858879367237e-02 
  1.026627670242e-01 
  1.117613330036e-01 
  6.026450332941e-02 
  5.445397226354e-02 
  4.864344119768e-02 
  4.269050779139e-02 
  3.687997672552e-02 
  2.511651225336e-02 
  6.041088484391e-02 
  6.848134077716e-02 
  7.655179671041e-02 
  5.489280988450e-02 
  6.296326581775e-02 
  4.937473492509e-02 
  7.619948091854e-02 
  6.867984149982e-02 
  6.116020208111e-02 
  6.286857741089e-02 
  5.534893799217e-02 
  4.953767390324e-02 
  1.113278534738e-01 
  1.028273987979e-01 
  9.432694412191e-02 
  1.051761888758e-01 
  9.667573419985e-02 
  9.902452427779e-02 
  8.865542708028e-02 
  8.551415683393e-02 
  8.237288658759e-02 
  6.928617675927e-02 
  6.614490651293e-02 
  4.991692643827e-02 
  8.926675892958e-02 
  1.017735330505e-01 
  1.142803071714e-01 
  8.634143791224e-02 
  9.884821203315e-02 
  8.341611689489e-02 
  4.909838865431e-02 
  5.659688184655e-02 
  6.409537503880e-02 
  2.468749925129e-02 
  3.218599244354e-02 
  2.766098482818e-04 
  6.557372135371e-02 
  5.701195381475e-02 
  4.845018627579e-02 
  7.473389311334e-02 
  6.617212557438e-02 
  8.389406487297e-02 
  1.065065079787e-01 
  5.534816588861e-02 
  4.189823798528e-03 
  5.347135578440e-02 
  2.313013694322e-03 
  4.362035901157e-04 
  1.525582562036e-02 
  8.184458804410e-03 
  1.113091988456e-03 
  6.993030210368e-02 
  6.285893528773e-02 
  1.246047785870e-01 
  8.545976963049e-02 
  8.968113216275e-02 
  9.390249469501e-02 
  7.614329003133e-02 
  8.036465256359e-02 
  6.682681043217e-02 
  1.140707710577e-01 
  5.661629624525e-02 
 -8.381785672194e-04 
  6.452851422299e-02 
  7.074039410515e-03 
  1.498625738825e-02 
  9.645604417031e-02 
  1.019155240264e-01 
  1.073750038826e-01 
  9.671126836872e-02 
  1.021707482248e-01 
  9.696649256712e-02 
  1.072762906227e-01 
  1.026916844736e-01 
  9.810707832440e-02 
  1.013265369396e-01 
  9.674193079041e-02 
  9.537678325643e-02 
  8.984402557260e-02 
  9.398047621483e-02 
  9.811692685707e-02 
  9.554503267120e-02 
  9.968148331344e-02 
  1.012460397698e-01 
  9.623374638504e-02 
  9.352265682500e-02 
  9.081156726496e-02 
  9.650368624787e-02 
  9.379259668784e-02 
  9.677362611071e-02 
  1.027162404549e-01 
  1.011840061963e-01 
  9.965177193773e-02 
  1.083980000249e-01 
  1.068657657663e-01 
  1.140797595948e-01 
  9.193495364469e-02 
  9.575015902288e-02 
  9.956536440107e-02 
  7.948020771688e-02 
  8.329541309507e-02 
  6.702546178907e-02 
  1.073423590496e-01 
  1.116164032852e-01 
  1.158904475208e-01 
  1.030459538195e-01 
  1.073199980551e-01 
  9.874954858942e-02 
  9.796538618105e-02 
  9.495109292705e-02 
  9.193679967306e-02 
  9.241762504882e-02 
  8.940333179483e-02 
  8.686986391660e-02 
  1.124497141062e-01 
  1.056221161560e-01 
  9.879451820575e-02 
  9.922171621518e-02 
  9.239411826494e-02 
  8.599371832412e-02 
  1.048397232587e-01 
  1.091369203636e-01 
  1.134341174685e-01 
  5.640924017260e-02 
  6.070643727754e-02 
  7.978757086560e-03 
  9.387299962842e-02 
  8.841489789643e-02 
  8.295679616444e-02 
  1.014666271785e-01 
  9.600852544655e-02 
  1.090602547287e-01 
  4.667087425112e-02 
  8.703009315406e-02 
  1.273893120570e-01 
  7.870096126956e-02 
  1.190601801725e-01 
  1.107310482880e-01 
  8.812144312862e-03 
  4.214409383001e-03 
 -3.833255468609e-04 
  1.730407471832e-02 
  1.270633978846e-02 
  2.579600512378e-02 
  8.061049541738e-03 
  3.514874147800e-03 
 -1.031301246137e-03 
  3.931384674056e-03 
 -6.147907198812e-04 
 -1.982801936253e-04 
  2.618562930432e-02 
  1.353639298227e-02 
  8.871566602249e-04 
  3.757135605548e-02 
  2.492211973344e-02 
  4.895708280665e-02 
  7.617309259477e-02 
  6.293996430819e-02 
  4.970683602161e-02 
  3.787318776993e-02 
  2.464005948335e-02 
 -4.267170549114e-04 
  7.833963617678e-02 
  9.417220835172e-02 
  1.100047805267e-01 
  8.098776683950e-02 
  9.682033901444e-02 
  8.363589750222e-02 
  7.749835686429e-02 
  8.087645922587e-02 
  8.425456158744e-02 
  6.369557630934e-02 
  6.707367867092e-02 
  4.989279575439e-02 
  7.667829108543e-04 
  1.354527619550e-02 
  2.632376948015e-02 
  1.630313879538e-04 
  1.294152467260e-02 
 -4.407201349467e-04 
  6.014273754574e-02 
  4.292162655219e-02 
  2.570051555865e-02 
  5.477573079828e-02 
  3.755461980474e-02 
  4.940872405082e-02 
 -4.514713276096e-04 
  1.454345551458e-04 
  7.423404379012e-04 
  3.795203774197e-02 
  3.854894362472e-02 
  7.635554681154e-02 
  1.246838269342e-01 
  6.514442623491e-02 
  5.605025535638e-03 
  1.182976378029e-01 
  5.875823710365e-02 
  1.119114486717e-01 
  1.078929502504e-01 
  8.742614323630e-02 
  6.695933622219e-02 
  1.036408081811e-01 
  8.317400116702e-02 
  9.938866611184e-02 
  4.997008254642e-02 
  2.615610578809e-02 
  2.342129029759e-03 
  5.355526348854e-02 
  2.974128673020e-02 
  5.714044443065e-02 
  1.164130562384e-01 
  5.854154924023e-02 
  6.700422420956e-04 
  5.967685696514e-02 
  1.805349967007e-03 
  2.940657691918e-03 
  1.133187579643e-01 
  5.625985567602e-02 
 -7.990466122303e-04 
  5.755033098758e-02 
  4.914286993253e-04 
  1.781904010881e-03 
  1.089278562003e-01 
  5.668416700951e-02 
  4.440477818723e-03 
  1.009084831988e-01 
  4.866479400802e-02 
  9.288911019731e-02 
  7.641896813643e-02 
  3.819266350457e-02 
 -3.364112727898e-05 
  9.392922186670e-02 
  5.570291723484e-02 
  1.114394755970e-01 
  9.038911720594e-02 
  1.006244878723e-01 
  1.108598585386e-01 
  9.886253165438e-02 
  1.090979023207e-01 
  1.073359461028e-01 
  1.368855424462e-01 
  6.910286641329e-02 
  1.320190380424e-03 
  6.960053306424e-02 
  1.817857031369e-03 
  2.315523682314e-03 
  1.093925466713e-01 
  1.108266690537e-01 
  1.122607914361e-01 
  1.201424685334e-01 
  1.215765909158e-01 
  1.308923903956e-01 
  1.111524073973e-01 
  1.107406045450e-01 
  1.103288016927e-01 
  9.434687711858e-02 
  9.393507426628e-02 
  7.754134683983e-02 
  1.150291200264e-01 
  1.131697378728e-01 
  1.113103557191e-01 
  1.143984646944e-01 
  1.125390825408e-01 
  1.137678093624e-01 
  1.124807430917e-01 
  1.065247639725e-01 
  1.005687848534e-01 
  1.133254919767e-01 
  1.073695128575e-01 
  1.141702408617e-01 
  1.156827235974e-01 
  1.114377856876e-01 
  1.071928477777e-01 
  1.229679167440e-01 
  1.187229788341e-01 
  1.302531098905e-01 
  1.311813204649e-01 
  1.402841972104e-01 
  1.493870739559e-01 
  1.230523276458e-01 
  1.321552043913e-01 
  1.149233348268e-01 
  1.309759251127e-01 
  1.220234831879e-01 
  1.130710412630e-01 
  1.325153920883e-01 
  1.235629501635e-01 
  1.340548590640e-01 
  1.093784770446e-01 
  1.196445943561e-01 
  1.299107116676e-01 
  1.083977515079e-01 
  1.186638688194e-01 
  1.074170259712e-01 
  1.342338742814e-01 
  1.371240773644e-01 
  1.400142804473e-01 
  1.426663630466e-01 
  1.455565661295e-01 
  1.510988518117e-01 
  1.343689463127e-01 
  1.246481012323e-01 
  1.149272561518e-01 
  6.943338585345e-02 
  5.971254077300e-02 
  4.497825394177e-03 
  1.179787885378e-01 
  1.338585479421e-01 
  1.497383073465e-01 
  1.348193714254e-01 
  1.506991308297e-01 
  1.516599543130e-01 
  1.495236404772e-01 
  1.332336722708e-01 
  1.169437040644e-01 
  1.318099799403e-01 
  1.155200117339e-01 
  1.140963194035e-01 
  1.263121104321e-01 
  1.218087778280e-01 
  1.173054452239e-01 
  1.259472497779e-01 
  1.214439171738e-01 
  1.255823891237e-01 
  1.158478617859e-01 
  1.212182979152e-01 
  1.265887340445e-01 
  1.132926616127e-01 
  1.186630977420e-01 
  1.107374614394e-01 
  1.510463205078e-01 
  1.508399303490e-01 
  1.506335401902e-01 
  1.457512091303e-01 
  1.455448189715e-01 
  1.404560977528e-01 
  1.343445531059e-01 
  1.422712950822e-01 
  1.501980370585e-01 
  1.325122897961e-01 
  1.404390317724e-01 
  1.306800264863e-01 
  4.611081748537e-03 
  7.211308190234e-02 
  1.396150820561e-01 
  6.997034282344e-02 
  1.374723429772e-01 
  1.353296038983e-01 