# vtk DataFile Version 2
NuDG++ 2D simulation
ASCII
DATASET UNSTRUCTURED_GRID

POINTS 2244 double
 -1.656250060000e-01  -2.000000030000e-01  0.0
 -1.828125045000e-01  -1.772221997500e-01  0.0
 -2.000000030000e-01  -1.544443965000e-01  0.0
 -1.828125045000e-01  -2.000000030000e-01  0.0
 -2.000000030000e-01  -1.772221997500e-01  0.0
 -2.000000030000e-01  -2.000000030000e-01  0.0
 -6.428571790000e-02  -1.700000018000e-01  0.0
 -8.058035746000e-02  -1.850000024000e-01  0.0
 -9.687499702000e-02  -2.000000030000e-01  0.0
 -6.339285895000e-02  -1.850000024000e-01  0.0
 -7.968749851000e-02  -2.000000030000e-01  0.0
 -6.250000000000e-02  -2.000000030000e-01  0.0
 -2.000000030000e-01  -1.544443965000e-01  0.0
 -1.750000045000e-01  -1.379364989500e-01  0.0
 -1.500000060000e-01  -1.214286014000e-01  0.0
 -2.000000030000e-01  -1.316666491500e-01  0.0
 -1.750000045000e-01  -1.151587516000e-01  0.0
 -2.000000030000e-01  -1.088889018000e-01  0.0
 -1.500000060000e-01  -1.214286014000e-01  0.0
 -1.750000045000e-01  -1.379364989500e-01  0.0
 -2.000000030000e-01  -1.544443965000e-01  0.0
 -1.500000060000e-01  -1.457143016000e-01  0.0
 -1.750000045000e-01  -1.622221991500e-01  0.0
 -1.500000060000e-01  -1.700000018000e-01  0.0
 -1.500000060000e-01  -7.285714149000e-02  0.0
 -1.750000045000e-01  -9.087302164500e-02  0.0
 -2.000000030000e-01  -1.088889018000e-01  0.0
 -1.500000060000e-01  -9.714287144500e-02  0.0
 -1.750000045000e-01  -1.151587516000e-01  0.0
 -1.500000060000e-01  -1.214286014000e-01  0.0
  1.832975030000e+00  -4.625000060000e-02  0.0
  1.853987515000e+00  -1.231250018000e-01  0.0
  1.875000000000e+00  -2.000000030000e-01  0.0
  1.916487515000e+00  -7.187499851000e-02  0.0
  1.937500000000e+00  -1.487499997100e-01  0.0
  2.000000000000e+00  -9.749999642000e-02  0.0
 -1.500000060000e-01  -1.700000018000e-01  0.0
 -1.360000037000e-01  -1.525000036000e-01  0.0
 -1.220000014000e-01  -1.350000054000e-01  0.0
 -1.500000060000e-01  -1.457143016000e-01  0.0
 -1.360000037000e-01  -1.282143034000e-01  0.0
 -1.500000060000e-01  -1.214286014000e-01  0.0
  2.849999964000e-01  -2.333333530000e-02  0.0
  2.837499976000e-01  -8.166666795000e-02  0.0
  2.824999988000e-01  -1.400000006000e-01  0.0
  3.174999952000e-01  -4.666666780000e-02  0.0
  3.162499964000e-01  -1.050000004500e-01  0.0
  3.499999940000e-01  -7.000000030000e-02  0.0
 -1.071429029000e-01  -1.700000018000e-01  0.0
 -8.571431040000e-02  -1.700000018000e-01  0.0
 -6.428571790000e-02  -1.700000018000e-01  0.0
 -9.857145324000e-02  -1.525000036000e-01  0.0
 -7.714286074000e-02  -1.525000036000e-01  0.0
 -9.000000358000e-02  -1.350000054000e-01  0.0
 -1.312499940000e-01  -2.000000030000e-01  0.0
 -1.191964484500e-01  -1.850000024000e-01  0.0
 -1.071429029000e-01  -1.700000018000e-01  0.0
 -1.406250000000e-01  -1.850000024000e-01  0.0
 -1.285714544500e-01  -1.700000018000e-01  0.0
 -1.500000060000e-01  -1.700000018000e-01  0.0
 -1.220000014000e-01  -1.350000054000e-01  0.0
 -1.060000024900e-01  -1.350000054000e-01  0.0
 -9.000000358000e-02  -1.350000054000e-01  0.0
 -1.185000017500e-01  -1.175000034500e-01  0.0
 -1.025000028400e-01  -1.175000034500e-01  0.0
 -1.150000021000e-01  -1.000000015000e-01  0.0
 -9.000000358000e-02  -1.350000054000e-01  0.0
 -1.060000024900e-01  -1.350000054000e-01  0.0
 -1.220000014000e-01  -1.350000054000e-01  0.0
 -9.857145324000e-02  -1.525000036000e-01  0.0
 -1.145714521500e-01  -1.525000036000e-01  0.0
 -1.071429029000e-01  -1.700000018000e-01  0.0
 -7.778175920000e-02  -9.192386270000e-02  0.0
 -9.639088065000e-02  -9.596193210000e-02  0.0
 -1.150000021000e-01  -1.000000015000e-01  0.0
 -8.389088139000e-02  -1.134619340500e-01  0.0
 -1.025000028400e-01  -1.175000034500e-01  0.0
 -9.000000358000e-02  -1.350000054000e-01  0.0
 -1.220000014000e-01  -1.350000054000e-01  0.0
 -1.185000017500e-01  -1.175000034500e-01  0.0
 -1.150000021000e-01  -1.000000015000e-01  0.0
 -1.360000037000e-01  -1.282143034000e-01  0.0
 -1.325000040500e-01  -1.107143014500e-01  0.0
 -1.500000060000e-01  -1.214286014000e-01  0.0
 -7.778175920000e-02  -9.192386270000e-02  0.0
 -8.389088139000e-02  -1.134619340500e-01  0.0
 -9.000000358000e-02  -1.350000054000e-01  0.0
 -6.639088876500e-02  -1.022535823500e-01  0.0
 -7.250001095500e-02  -1.237916537000e-01  0.0
 -5.500001833000e-02  -1.125833020000e-01  0.0
 -1.071429029000e-01  -1.700000018000e-01  0.0
 -1.145714521500e-01  -1.525000036000e-01  0.0
 -1.220000014000e-01  -1.350000054000e-01  0.0
 -1.285714544500e-01  -1.700000018000e-01  0.0
 -1.360000037000e-01  -1.525000036000e-01  0.0
 -1.500000060000e-01  -1.700000018000e-01  0.0
  6.250000093000e-03  -2.000000030000e-01  0.0
  4.062500153650e-02  -2.000000030000e-01  0.0
  7.500000298000e-02  -2.000000030000e-01  0.0
  1.383928512150e-02  -1.850000024000e-01  0.0
  4.821428656500e-02  -1.850000024000e-01  0.0
  2.142857015000e-02  -1.700000018000e-01  0.0
 -1.500000060000e-01  -7.285714149000e-02  0.0
 -1.500000060000e-01  -9.714287144500e-02  0.0
 -1.500000060000e-01  -1.214286014000e-01  0.0
 -1.325000040500e-01  -8.642857149500e-02  0.0
 -1.325000040500e-01  -1.107143014500e-01  0.0
 -1.150000021000e-01  -1.000000015000e-01  0.0
 -2.000000030000e-01  -6.333333254000e-02  0.0
 -1.750000045000e-01  -6.809523701500e-02  0.0
 -1.500000060000e-01  -7.285714149000e-02  0.0
 -1.750000045000e-01  -4.380952660000e-02  0.0
 -1.500000060000e-01  -4.857143107500e-02  0.0
 -1.500000060000e-01  -2.428572066000e-02  0.0
 -2.000000030000e-01  -6.333333254000e-02  0.0
 -2.000000030000e-01  -8.611111717000e-02  0.0
 -2.000000030000e-01  -1.088889018000e-01  0.0
 -1.750000045000e-01  -6.809523701500e-02  0.0
 -1.750000045000e-01  -9.087302164500e-02  0.0
 -1.500000060000e-01  -7.285714149000e-02  0.0
 -2.000000030000e-01  -6.333333254000e-02  0.0
 -1.750000045000e-01  -4.380952660000e-02  0.0
 -1.500000060000e-01  -2.428572066000e-02  0.0
 -2.000000030000e-01  -4.055555630500e-02  0.0
 -1.750000045000e-01  -2.103175036500e-02  0.0
 -2.000000030000e-01  -1.777778007000e-02  0.0
 -1.500000060000e-01  -2.428572066000e-02  0.0
 -1.500000060000e-01  -4.857143107500e-02  0.0
 -1.500000060000e-01  -7.285714149000e-02  0.0
 -1.281259023000e-01  -2.896608505500e-02  0.0
 -1.281259023000e-01  -5.325179547000e-02  0.0
 -1.062517986000e-01  -3.364644945000e-02  0.0
 -1.099999994000e-01   1.996667010000e-08  0.0
 -1.300000027000e-01  -1.214285034666e-02  0.0
 -1.500000060000e-01  -2.428572066000e-02  0.0
 -1.081258990000e-01  -1.682321474166e-02  0.0
 -1.281259023000e-01  -2.896608505500e-02  0.0
 -1.062517986000e-01  -3.364644945000e-02  0.0
 -1.500000060000e-01  -2.428572066000e-02  0.0
 -1.500000060000e-01   0.000000000000e+00  0.0
 -1.500000060000e-01   2.428572066000e-02  0.0
 -1.750000045000e-01  -2.103175036500e-02  0.0
 -1.750000045000e-01   3.253970295000e-03  0.0
 -2.000000030000e-01  -1.777778007000e-02  0.0
 -1.500000060000e-01  -7.285714149000e-02  0.0
 -1.226314045700e-01  -6.892856210000e-02  0.0
 -9.526280314000e-02  -6.499998271000e-02  0.0
 -1.281259023000e-01  -5.325179547000e-02  0.0
 -1.007573008700e-01  -4.932321608000e-02  0.0
 -1.062517986000e-01  -3.364644945000e-02  0.0
  3.499999940000e-01   1.400000006000e-01  0.0
  4.021931737500e-01   1.224999986500e-01  0.0
  4.543863535000e-01   1.049999967000e-01  0.0
  4.187500029500e-01   1.749999970000e-01  0.0
  4.709431827000e-01   1.574999950500e-01  0.0
  4.875000119000e-01   2.099999934000e-01  0.0
 -7.101409137000e-02  -4.349999130000e-02  0.0
 -8.313844725500e-02  -5.424998700500e-02  0.0
 -9.526280314000e-02  -6.499998271000e-02  0.0
 -6.449843011500e-02  -5.250913650000e-02  0.0
 -7.662278600000e-02  -6.325913220500e-02  0.0
 -5.798276886000e-02  -6.151828170000e-02  0.0
 -9.526280314000e-02  -6.499998271000e-02  0.0
 -1.226314045700e-01  -6.892856210000e-02  0.0
 -1.500000060000e-01  -7.285714149000e-02  0.0
 -1.051314026200e-01  -8.249999210500e-02  0.0
 -1.325000040500e-01  -8.642857149500e-02  0.0
 -1.150000021000e-01  -1.000000015000e-01  0.0
 -6.181925908000e-02  -1.656441018000e-02  0.0
 -7.051259093000e-02  -1.954082492500e-02  0.0
 -7.920592278000e-02  -2.251723967000e-02  0.0
 -5.862244405000e-02  -2.428220026000e-02  0.0
 -6.731577590000e-02  -2.725861500500e-02  0.0
 -5.542562902000e-02  -3.199999034000e-02  0.0
 -7.920592278000e-02  -2.251723967000e-02  0.0
 -9.272886069000e-02  -2.808184456000e-02  0.0
 -1.062517986000e-01  -3.364644945000e-02  0.0
 -7.511000707500e-02  -3.300861548500e-02  0.0
 -8.863294498500e-02  -3.857322037500e-02  0.0
 -7.101409137000e-02  -4.349999130000e-02  0.0
 -7.101409137000e-02  -4.349999130000e-02  0.0
 -6.321986019500e-02  -3.774999082000e-02  0.0
 -5.542562902000e-02  -3.199999034000e-02  0.0
 -7.511000707500e-02  -3.300861548500e-02  0.0
 -6.731577590000e-02  -2.725861500500e-02  0.0
 -7.920592278000e-02  -2.251723967000e-02  0.0
 -7.920592278000e-02  -2.251723967000e-02  0.0
 -9.460296109000e-02  -1.125860985166e-02  0.0
 -1.099999994000e-01   1.996667010000e-08  0.0
 -9.272886069000e-02  -2.808184456000e-02  0.0
 -1.081258990000e-01  -1.682321474166e-02  0.0
 -1.062517986000e-01  -3.364644945000e-02  0.0
 -7.778175920000e-02  -9.192386270000e-02  0.0
 -6.788226403000e-02  -7.672107220000e-02  0.0
 -5.798276886000e-02  -6.151828170000e-02  0.0
 -8.652228117000e-02  -7.846192270500e-02  0.0
 -7.662278600000e-02  -6.325913220500e-02  0.0
 -9.526280314000e-02  -6.499998271000e-02  0.0
 -7.101409137000e-02  -4.349999130000e-02  0.0
 -8.863294498500e-02  -3.857322037500e-02  0.0
 -1.062517986000e-01  -3.364644945000e-02  0.0
 -8.313844725500e-02  -5.424998700500e-02  0.0
 -1.007573008700e-01  -4.932321608000e-02  0.0
 -9.526280314000e-02  -6.499998271000e-02  0.0
 -7.778175920000e-02  -9.192386270000e-02  0.0
 -8.652228117000e-02  -7.846192270500e-02  0.0
 -9.526280314000e-02  -6.499998271000e-02  0.0
 -9.639088065000e-02  -9.596193210000e-02  0.0
 -1.051314026200e-01  -8.249999210500e-02  0.0
 -1.150000021000e-01  -1.000000015000e-01  0.0
[...]
POINT_DATA 2244
SCALARS field1 double 1
LOOKUP_TABLE default
  2.988735965308e-03 
  1.289910138807e-01 
  2.549932917961e-01 
  1.313292630966e-03 
  1.273155705464e-01 
 -3.621507033763e-04 
  3.616277394094e-01 
  1.794741661657e-01 
 -2.679407078045e-03 
  1.819092094019e-01 
 -2.443638418717e-04 
  2.190679394302e-03 
  2.523187535147e-01 
  3.262981042172e-01 
  4.002774549197e-01 
  3.479329132132e-01 
  4.219122639157e-01 
  4.435470729116e-01 
  4.011242009533e-01 
  3.266359886503e-01 
  2.521477763472e-01 
  3.008111283116e-01 
  2.263229160085e-01 
  2.004980556699e-01 
  5.515543965894e-01 
  4.977933581781e-01 
  4.440323197669e-01 
  4.784406734770e-01 
  4.246796350657e-01 
  4.053269503646e-01 
  9.053570156562e-02 
 -2.968690441494e-02 
 -1.499095103955e-01 
  1.059565600256e-01 
 -1.426604595493e-02 
  1.213774184856e-01 
  2.013330412742e-01 
  2.889025504176e-01 
  3.764720595610e-01 
  3.016579628596e-01 
  3.892274720029e-01 
  4.019828844449e-01 
  5.423020844939e-01 
  5.064435833895e-01 
  4.705850822851e-01 
  5.447793810297e-01 
  5.089208799253e-01 
  5.472566775655e-01 
  2.681775742986e-01 
  3.154838584350e-01 
  3.627901425713e-01 
  3.465947143917e-01 
  3.939009985281e-01 
  4.250118544848e-01 
 -2.489775917811e-04 
  1.344756169967e-01 
  2.692002115852e-01 
  9.737219239872e-02 
  2.320967869872e-01 
  1.949933623892e-01 
  3.720878154122e-01 
  3.977952002945e-01 
  4.235025851768e-01 
  4.419486012460e-01 
  4.676559861283e-01 
  5.118093870799e-01 
  4.214800956305e-01 
  3.971921761088e-01 
  3.729042565870e-01 
  3.447824739034e-01 
  3.204945543817e-01 
  2.680848521763e-01 
  5.671792686109e-01 
  5.396798722537e-01 
  5.121804758964e-01 
  4.973327460497e-01 
  4.698333496925e-01 
  4.274862234885e-01 
  3.746800988732e-01 
  4.425144910014e-01 
  5.103488831297e-01 
  3.886452664038e-01 
  4.564796585321e-01 
  4.026104339344e-01 
  5.674750584926e-01 
  4.966976563572e-01 
  4.259202542217e-01 
  5.707179951314e-01 
  4.999405929959e-01 
  5.739609317701e-01 
  2.673467124881e-01 
  3.219205995588e-01 
  3.764944866296e-01 
  2.334383605199e-01 
  2.880122475907e-01 
  1.995300085517e-01 
  1.571133265946e-03 
  4.274136807282e-03 
  6.977140348617e-03 
  2.612351761655e-01 
  2.639381797069e-01 
  5.208992190651e-01 
  5.512472257741e-01 
  4.772379526006e-01 
  4.032286794272e-01 
  5.303242724747e-01 
  4.563149993012e-01 
  5.094013191752e-01 
  5.719274605485e-01 
  5.597023547150e-01 
  5.474772488814e-01 
  5.877068754303e-01 
  5.754817695968e-01 
  6.034862903122e-01 
  5.703963690378e-01 
  5.072372841960e-01 
  4.440781993543e-01 
  5.594315551730e-01 
  4.962724703313e-01 
  5.484667413082e-01 
  5.736568041838e-01 
  5.887905633794e-01 
  6.039243225750e-01 
  6.050092063207e-01 
  6.201429655163e-01 
  6.363616084576e-01 
  6.038787689824e-01 
  5.782834142957e-01 
  5.526880596089e-01 
  5.668171644055e-01 
  5.412218097188e-01 
  5.297555598286e-01 
  5.021513975914e-01 
  5.532690345677e-01 
  6.043866715440e-01 
  5.121465382880e-01 
  5.632641752643e-01 
  5.221416789845e-01 
  5.981225224467e-01 
  6.062184325718e-01 
  6.143143426968e-01 
  6.176582851782e-01 
  6.257541953033e-01 
  6.371940479097e-01 
  5.517159653847e-01 
  5.390717408252e-01 
  5.264275162657e-01 
  5.396745008929e-01 
  5.270302763334e-01 
  5.276330364012e-01 
  4.675401058330e-01 
  5.161802172916e-01 
  5.648203287502e-01 
  2.617127243711e-01 
  3.103528358297e-01 
  5.588534290922e-02 
  4.923078457636e-01 
  5.129349888935e-01 
  5.335621320234e-01 
  5.481575397981e-01 
  5.687846829280e-01 
  6.040072338326e-01 
  5.293836799251e-01 
  5.405918497265e-01 
  5.518000195278e-01 
  5.218260098854e-01 
  5.330341796868e-01 
  5.142683398458e-01 
  1.947416231911e-01 
  2.900957096105e-01 
  3.854497960299e-01 
  2.586614061666e-01 
  3.540154925860e-01 
  3.225811891420e-01 
  3.687444463922e-01 
  4.438290452457e-01 
  5.189136440992e-01 
  4.306219897173e-01 
  5.057065885708e-01 
  4.924995330423e-01 
  4.958695252272e-01 
  4.138173982230e-01 
  3.317652712188e-01 
  4.375374327173e-01 
  3.554853057132e-01 
  3.792053402075e-01 
  3.680208653056e-01 
  4.322631676543e-01 
  4.965054700031e-01 
  4.448153497013e-01 
  5.090576520501e-01 
  5.216098340971e-01 
  5.669932515836e-01 
  5.880921286891e-01 
  6.091910057947e-01 
  5.494051884254e-01 
  5.705040655310e-01 
  5.318171252673e-01 
  4.955913915870e-01 
  5.094614786885e-01 
  5.233315657900e-01 
  5.161477584746e-01 
  5.300178455761e-01 
  5.367041253622e-01 
  5.613722219524e-01 
  5.447558109439e-01 
  5.281393999354e-01 
  5.368188878763e-01 
  5.202024768678e-01 
  5.122655538003e-01 
  3.799856788206e-01 
  2.917021777163e-01 
  2.034186766120e-01 
  3.661248199477e-01 
  2.778413188434e-01 
  3.522639610747e-01 
  5.734374854314e-01 
  4.994293308643e-01 
  4.254211762971e-01 
  4.686884214106e-01 
  3.946802668434e-01 
  3.639393573897e-01 
  1.375620641614e-01 
  1.296485650185e-01 
  1.217350658755e-01 
  3.943476910097e-01 
  3.864341918667e-01 
  6.511333178579e-01 
  5.902946324767e-01 
  5.254024463876e-01 
  4.605102602986e-01 
  6.165417900515e-01 
  5.516496039624e-01 
  6.427889476262e-01 
  5.869684309162e-01 
  5.791365589414e-01 
  5.713046869666e-01 
  4.758791615260e-01 
  4.680472895512e-01 
  3.647898921357e-01 
  5.637605624628e-01 
  6.387624890762e-01 
  7.137644156897e-01 
  5.855590907352e-01 
  6.605610173486e-01 
  6.073576190075e-01 
  7.175401367446e-01 
  6.414137018348e-01 
  5.652872669250e-01 
  6.501208591111e-01 
  5.739944242013e-01 
  5.827015814776e-01 
  8.151626464469e-01 
  7.674914431993e-01 
  7.198202399517e-01 
  6.960923751173e-01 
  6.484211718697e-01 
  5.770221037877e-01 
  7.186484210293e-01 
  6.627492724059e-01 
  6.068501237825e-01 
  7.225830968112e-01 
  6.666839481877e-01 
  7.265177725930e-01 
  5.733629720501e-01 
  5.844535541012e-01 
  5.955441361522e-01 
  6.964851697494e-01 
  7.075757518005e-01 
  8.196073674487e-01 
  5.897262778962e-01 
  4.783071786264e-01 
  3.668880793566e-01 
  5.250860266672e-01 
  4.136669273974e-01 
  4.604457754382e-01 
  8.768845751428e-01 
  8.498866283135e-01 
  8.228886814842e-01 
  7.376747109331e-01 
  7.106767641038e-01 
  5.984648467233e-01 
 -1.089936198428e-03 
  3.535732702928e-01 
  7.082364767841e-01 
 -6.936845740348e-03 
  3.477263607509e-01 
 -1.278375528227e-02 
  8.403779868810e-01 
  7.941330017349e-01 
  7.478880165888e-01 
  8.136107066117e-01 
  7.673657214657e-01 
  7.868434263425e-01 
  7.425416116237e-01 
  7.912596674476e-01 
  8.399777232715e-01 
  7.999497202477e-01 
  8.486677760716e-01 
  8.573578288717e-01 
  7.834985865487e-01 
  7.603064407173e-01 
  7.371142948859e-01 
  3.987428579671e-01 
  3.755507121357e-01 
  1.398712938549e-02 
  8.219727648326e-01 
  8.062275462026e-01 
  7.904823275725e-01 
  7.747235561426e-01 
  7.589783375125e-01 
  7.274743474525e-01 
  8.196947900641e-01 
  7.688180044957e-01 
  7.179412189273e-01 
  8.427303784053e-01 
  7.918535928369e-01 
  8.657659667466e-01 
  8.791958818481e-01 
  7.388343661113e-01 
  5.984728503746e-01 
  7.619341777072e-01 
  6.215726619704e-01 
  6.446724735662e-01 
  4.618119101435e-01 
  4.844859197321e-01 
  5.071599293207e-01 
  5.529954322909e-01 
  5.756694418795e-01 
  6.441789544383e-01 
  7.151161081427e-01 
  7.252170590416e-01 
  7.353180099406e-01 
  7.503218903751e-01 
  7.604228412741e-01 
  7.855276726076e-01 
 -1.267744552107e-03 
  1.679810372666e-01 
  3.372298190853e-01 
  8.289037792424e-03 
  1.775378196111e-01 
  1.784582013696e-02 
  3.312783385641e-01 
  4.102037437542e-01 
  4.891291489443e-01 
  4.315532743711e-01 
  5.104786795612e-01 
  5.318282101782e-01 
  4.659503105108e-01 
  2.347687980992e-01 
  3.587285687490e-03 
  2.347292963702e-01 
  3.547783958535e-03 
  3.508282229580e-03 
 -1.536380443516e-02 
  2.939018327383e-02 
  7.414417098282e-02 
  8.824893575097e-02 
  1.330029234600e-01 
  1.918616759371e-01 
  7.863165771072e-03 
 -3.502560118807e-03 
 -1.486828600869e-02 
  1.624491513666e-01 
  1.510834254767e-01 
  3.170351369620e-01 
  3.119736448053e-01 
  1.568671555255e-01 
  1.760666245666e-03 
  2.805068033516e-01 
  1.254003140718e-01 
  2.490399618980e-01 
  3.335752319980e-01 
  4.399604145095e-01 
  5.463455970209e-01 
  1.789986812035e-01 
  2.853838637150e-01 
  2.442213040907e-02 
 -2.118554759917e-02 
  8.251339951624e-02 
  1.862123466317e-01 
  1.467074411710e-01 
  2.504063882864e-01 
  3.146004299412e-01 
  7.082267002783e-03 
  8.118269545542e-03 
  9.154272088301e-03 
  3.965678942060e-01 
  3.976038967488e-01 
  7.860535214092e-01 
  1.346838287022e-02 
  3.751296549715e-01 
  7.367909270729e-01 
  7.001886146201e-03 
  3.686631582475e-01 
  5.353894221857e-04 
  4.959816074442e-01 
  2.477785322757e-01 
 -4.245428929440e-04 
  4.508779815541e-01 
  2.026749063855e-01 
  4.057743556639e-01 
  6.174329326346e-03 
  2.910128658392e-01 
  5.758514023521e-01 
  1.691493322553e-02 
  3.017534697384e-01 
  2.765553712471e-02 
  2.093943789207e-02 
  3.674411589135e-01 
  7.139428799349e-01 
  3.986845301908e-01 
  7.451862512122e-01 
  7.764296224896e-01 
  4.625648085129e-01 
  2.359458675745e-01 
  9.326926636102e-03 
  4.841290965251e-01 
  2.575101555867e-01 
  5.056933845372e-01 
  2.741290631132e-01 
  1.377372538174e-01 
  1.345444521655e-03 
  1.391366578991e-01 
  2.744848603305e-03 
  4.144252684954e-03 
  4.004847434895e-02 
  3.034493863963e-01 
  5.668502984437e-01 
  3.758979961108e-01 
  6.392989081582e-01 
  7.117475178727e-01 
  5.442101131544e-01 
  5.760411865808e-01 
  6.078722600072e-01 
  6.294113465172e-01 
  6.612424199436e-01 
  7.146125798800e-01 
  3.720738622835e-01 
  1.905296178731e-01 
  8.985373462815e-03 
  4.126458368233e-01 
  2.311015924130e-01 
  4.532178113632e-01 
  8.779394753512e-01 
  7.592879443285e-01 
  6.406364133058e-01 
  7.905153423474e-01 
  6.718638113248e-01 
  7.030912093437e-01 
  5.360040761951e-01 
  5.118211204915e-01 
  4.876381647879e-01 
  5.733965218767e-01 
  5.492135661731e-01 
  6.107889675584e-01 
  1.999147261948e-03 
  5.392219504420e-03 
  8.785291746892e-03 
  1.889049929574e-01 
  1.922980651998e-01 
  3.758108386528e-01 
  6.479893931481e-02 
  2.889593046140e-02 
 -7.007078392017e-03 
  2.980348861290e-02 
 -6.099520240510e-03 
 -5.191962089004e-03 
  5.791247453043e-01 
  5.959040012569e-01 
  6.126832572095e-01 
  5.615976431554e-01 
  5.783768991080e-01 
  5.440705410065e-01 
  6.150414037757e-01 
  6.246777847704e-01 
  6.343141657652e-01 
  6.265763731449e-01 
  6.362127541397e-01 
  6.381113425141e-01 
  6.333430786412e-01 
  6.030954390115e-01 
  5.728477993818e-01 
  6.019906030403e-01 
  5.717429634106e-01 
  5.706381274393e-01 
  5.737516947913e-01 
  6.029537198337e-01 
  6.321557448760e-01 
  5.924296012186e-01 
  6.216316262610e-01 
  6.111075076460e-01 
  5.697043589889e-01 
  5.720181991735e-01 
  5.743320393581e-01 
  5.073837739490e-01 
  5.096976141336e-01 
  4.450631889090e-01 
 -8.498415900390e-02 
 -1.163027146098e-01 
 -1.476212702157e-01 
 -6.222269673245e-02 
 -9.354125233836e-02 
 -3.946123446101e-02 
  6.157453789247e-01 
  5.600981253472e-01 
  5.044508717697e-01 
  5.760730955227e-01 
  5.204258419452e-01 
  5.364008121207e-01 
  6.158226726432e-01 
  6.087582188387e-01 
  6.016937650342e-01 
  5.623524741821e-01 
  5.552880203777e-01 
  5.088822757211e-01 
  3.790921290050e-01 
  4.580217670462e-01 
  5.369514050874e-01 
  4.395209468885e-01 
  5.184505849297e-01 
  4.999497647720e-01 
  5.116610641930e-01 
  4.485431722234e-01 
  3.854252802538e-01 
  4.275964456690e-01 
  3.644785536994e-01 
  3.435318271450e-01 
  5.357043043572e-01 
  5.175184133028e-01 
  4.993325222484e-01 
  5.409556145365e-01 
  5.227697234822e-01 
  5.462069247159e-01 
  4.992579962860e-01 
  5.153834959421e-01 
  5.315089955982e-01 
  4.397398890275e-01 
  4.558653886836e-01 
  3.802217817690e-01 
  5.743280722996e-01 
  5.588107166493e-01 
  5.432933609990e-01 
  6.001678266246e-01 
  5.846504709743e-01 
  6.260075809495e-01 
  5.407267155592e-01 
  5.420040483966e-01 
  5.432813812341e-01 
  5.603091529196e-01 
  5.615864857571e-01 
  5.798915902801e-01 
  3.864613182529e-01 
  3.673873365370e-01 
  3.483133548212e-01 
  2.987538025234e-01 
  2.796798208076e-01 
  2.110462867940e-01 
  3.798387356513e-01 
  4.379781204898e-01 
  4.961175053282e-01 
  3.622744580029e-01 
  4.204138428413e-01 
  3.447101803545e-01 
  4.935400885145e-01 
  4.320496483289e-01 
  3.705592081434e-01 
  4.206917127537e-01 
  3.592012725681e-01 
  3.478433369929e-01 
  5.782709454688e-01 
  5.637361961247e-01 
  5.492014467805e-01 
  5.552243023829e-01 
  5.406895530388e-01 
  5.321776592970e-01 
  4.444035670436e-01 
  4.388874856298e-01 
  4.333714042159e-01 
  3.485232135564e-01 
  3.430071321425e-01 
  2.526428600691e-01 
  4.454463944862e-01 
  5.109180241876e-01 
  5.763896538891e-01 
  4.411690167103e-01 
  5.066406464118e-01 
  4.368916389344e-01 
  2.506653235690e-01 
  2.495322505260e-01 
  2.483991774829e-01 
  1.250975061341e-01 
  1.239644330911e-01 
 -4.703113007436e-04 
  2.508200257405e-01 
  2.511217668917e-01 
  2.514235080429e-01 
  3.424370008946e-01 
  3.427387420458e-01 
  4.340539760487e-01 
  3.209147854582e-01 
  1.625763752594e-01 
  4.237965060531e-03 
  1.605089858954e-01 
  2.170575696559e-03 
  1.031863325869e-04 
  2.074869586595e-02 
  1.053481967149e-02 
  3.209434770215e-04 
  2.571679350020e-01 
  2.469540588075e-01 
  4.935871741380e-01 
  4.341546418473e-01 
  4.211293242026e-01 
  4.081040065579e-01 
  3.429657518479e-01 
  3.299404342031e-01 
  2.517768618484e-01 
  4.422495449212e-01 
  2.224438173564e-01 
  2.638089791663e-03 
  2.379351314351e-01 
  1.812940387031e-02 
  3.362071794897e-02 
  5.289211357774e-01 
  5.492799865871e-01 
  5.696388373968e-01 
  4.979930751171e-01 
  5.183519259268e-01 
  4.670650144568e-01 
  5.677293364434e-01 
  5.495295203750e-01 
  5.313297043066e-01 
  5.580911050263e-01 
  5.398912889579e-01 
  5.484528736093e-01 
  4.041832884247e-01 
  4.367113549982e-01 
  4.692394215717e-01 
  3.597749862532e-01 
  3.923030528267e-01 
  3.153666840817e-01 
  4.661978718200e-01 
  4.358645833698e-01 
  4.055312949196e-01 
  4.967046440472e-01 
  4.663713555970e-01 
  5.272114162745e-01 
  3.170175926234e-01 
  3.950833763737e-01 
  4.731491601240e-01 
  3.707623232883e-01 
  4.488281070386e-01 
  4.245070539532e-01 
  4.077280925050e-01 
  3.598868366852e-01 
  3.120455808653e-01 
  3.292698084735e-01 
  2.814285526536e-01 
  2.508115244420e-01 
  5.679126642588e-01 
  5.668214306134e-01 
  5.657301969681e-01 
  5.179083300536e-01 
  5.168170964082e-01 
  4.679039958483e-01 
  5.265893783294e-01 
  4.672779950746e-01 
  4.079666118198e-01 
  4.802016430748e-01 
  4.208902598200e-01 
  4.338139078203e-01 
  5.761184668407e-01 
  5.507921590359e-01 
  5.254658512312e-01 
  5.049861061693e-01 
  4.796597983646e-01 
  4.338537454980e-01 
  3.215065114061e-01 
  3.675555275729e-01 
  4.136045437396e-01 
  1.621053684570e-01 
  2.081543846238e-01 
  2.704225507949e-03 
  5.386574932619e-01 
  5.200675214524e-01 
  5.014775496430e-01 
  5.816195454385e-01 
  5.630295736290e-01 
  6.245815976151e-01 
 -9.256662980523e-02 
 -8.193412675792e-02 
 -7.130162371061e-02 
 -1.512087352640e-01 
 -1.405762322167e-01 
 -2.098508407228e-01 
  6.888322221693e-02 
  3.046120267843e-02 
 -7.960816860073e-03 
  1.369764107686e-01 
  9.855439123014e-02 
  2.050695993204e-01 
  6.289178420322e-02 
  2.840906703795e-02 
 -6.073650127333e-03 
  2.927772269084e-02 
 -5.204994474436e-03 
 -4.336338821539e-03 
  2.101559896325e-01 
  1.050323145866e-01 
 -9.136045937386e-05 
  2.687203382658e-01 
  1.635966632199e-01 
  3.272846868992e-01 
  5.062000375564e-01 
  4.145544031405e-01 
  3.229087687246e-01 
  2.497905457134e-01 
  1.581449112975e-01 
 -6.618946129637e-03 
  5.246593569137e-01 
  5.817889847453e-01 
  6.389186125768e-01 
  5.190396304482e-01 
  5.761692582798e-01 
  5.134199039828e-01 
  5.138726503801e-01 
  5.166857286872e-01 
  5.194988069943e-01 
  4.231851594578e-01 
  4.259982377649e-01 
  3.324976685354e-01 
  2.910074823359e-03 
  1.055112026211e-01 
  2.081123304188e-01 
 -6.268049586611e-04 
  1.019743228390e-01 
 -4.163684740681e-03 
  3.898488584438e-01 
  2.995292289076e-01 
  2.092095993715e-01 
  3.630843339160e-01 
  2.727647043798e-01 
  3.363198093882e-01 
 -1.835582959048e-03 
  6.137500871306e-03 
  1.411058470166e-02 
  2.547279012145e-01 
  2.627009850449e-01 
  5.112913853881e-01 
  5.163290432056e-01 
  2.642403507115e-01 
  1.215165821750e-02 
  5.144549929046e-01 
  2.623663004105e-01 
  5.125809426036e-01 
  2.898780544387e-01 
  2.092640757705e-01 
  1.286500971023e-01 
  4.452156403653e-01 
  3.646016616971e-01 
  6.005532262919e-01 
  2.550392697233e-01 
  1.292205278384e-01 
  3.401785953370e-03 
  2.265272585167e-01 
  1.007085166317e-01 
  1.980152473100e-01 
  7.356854904209e-01 
  3.710154852267e-01 
  6.345480032480e-03 
  3.779392088238e-01 
  1.326920362960e-02 
  2.019292722672e-02 
  7.117339543306e-01 
  3.558009034828e-01 
 -1.321473649984e-04 
  3.663170289704e-01 
  1.038397812259e-02 
  2.090010361019e-02 
  4.626399090328e-01 
  2.376880359395e-01 
  1.273616284614e-02 
  4.288586823755e-01 
  2.039068092822e-01 
  3.950774557182e-01 
  5.028387476663e-01 
  2.540174333842e-01 
  5.196119102135e-03 
  5.964908192947e-01 
  3.476695050126e-01 
  6.901428909231e-01 
  5.841163503661e-01 
  5.485973104699e-01 
  5.130782705737e-01 
  5.131620318759e-01 
  4.776429919797e-01 
  4.422077133856e-01 
  7.886191687119e-01 
  3.984722929208e-01 
  8.325417129661e-03 
  3.941813025557e-01 
  4.034426764529e-03 
 -2.565636006033e-04 
  6.336252059475e-01 
  6.659536323096e-01 
  6.982820586717e-01 
  6.924212182407e-01 
  7.247496446028e-01 
  7.512172305339e-01 
  6.874307677446e-01 
  6.648273636092e-01 
  6.422239594739e-01 
  6.008742234493e-01 
  5.782708193140e-01 
  5.143176791541e-01 
  5.873339171641e-01 
  5.052117465853e-01 
  4.230895760064e-01 
  5.774306549568e-01 
  4.953084843779e-01 
  5.675273927494e-01 
  4.268104260275e-01 
  4.491651131213e-01 
  4.715198002150e-01 
  4.965847427467e-01 
  5.189394298405e-01 
  5.663590594659e-01 
  5.764201501301e-01 
  5.721960293733e-01 
  5.679719086164e-01 
  6.627939998646e-01 
  6.585698791077e-01 
  7.491678495990e-01 
  7.500419552754e-01 
  7.936558598098e-01 
  8.372697643442e-01 
  6.616370524334e-01 
  7.052509569678e-01 
  5.732321495915e-01 
  7.519162626566e-01 
  7.301079103139e-01 
  7.082995579712e-01 
  7.707189939972e-01 
  7.489106416545e-01 
  7.895217253378e-01 
  6.261268435901e-01 
  6.847761200003e-01 
  7.434253964106e-01 
  5.971692233723e-01 
  6.558184997825e-01 
  5.682116031545e-01 
  7.830260067041e-01 
  7.676780801914e-01 
  7.523301536786e-01 
  8.163558137602e-01 
  8.010078872474e-01 
  8.496856208162e-01 
  7.873157481398e-01 
  7.581956462005e-01 
  7.290755442612e-01 
  4.089171576648e-01 
  3.797970557255e-01 
  3.051856718982e-02 
  6.050561718563e-01 
  7.241166230032e-01 
  8.431770741501e-01 
  7.425505142818e-01 
  8.616109654287e-01 
  8.800448567073e-01 
  8.424955913096e-01 
  7.213329287052e-01 
  6.001702661007e-01 
  7.057432344054e-01 
  5.845805718009e-01 
  5.689908775012e-01 
  4.913437088769e-01 
  5.409366029182e-01 
  5.905294969595e-01 
  5.707192529885e-01 
  6.203121470297e-01 
  6.500947971000e-01 
  5.898951806499e-01 
  5.401338070261e-01 
  4.903724334024e-01 
  5.039182084115e-01 
  4.541568347878e-01 
  4.179412361731e-01 
  8.599367077623e-01 
  8.553953776221e-01 
  8.508540474820e-01 
  8.033488991171e-01 
  7.988075689770e-01 
  7.467610904719e-01 
  7.873027451017e-01 
  8.119306017098e-01 
  8.365584583178e-01 
  7.689521962259e-01 
  7.935800528339e-01 
  7.506016473500e-01 
  1.168389700957e-02 
  3.818286402023e-01 
  7.519733833950e-01 
  3.972113422560e-01 
  7.673560854487e-01 
  7.827387875025e-01 