# vtk DataFile Version 2
NuDG++ 2D simulation
ASCII
DATASET UNSTRUCTURED_GRID

POINTS 2244 double
 -1.656250060000e-01  -2.000000030000e-01  0.0
 -1.828125045000e-01  -1.772221997500e-01  0.0
 -2.000000030000e-01  -1.544443965000e-01  0.0
 -1.828125045000e-01  -2.000000030000e-01  0.0
 -2.000000030000e-01  -1.772221997500e-01  0.0
 -2.000000030000e-01  -2.000000030000e-01  0.0
 -6.428571790000e-02  -1.700000018000e-01  0.0
 -8.058035746000e-02  -1.850000024000e-01  0.0
 -9.687499702000e-02  -2.000000030000e-01  0.0
 -6.339285895000e-02  -1.850000024000e-01  0.0
 -7.968749851000e-02  -2.000000030000e-01  0.0
 -6.250000000000e-02  -2.000000030000e-01  0.0
 -2.000000030000e-01  -1.544443965000e-01  0.0
 -1.750000045000e-01  -1.379364989500e-01  0.0
 -1.500000060000e-01  -1.214286014000e-01  0.0
 -2.000000030000e-01  -1.316666491500e-01  0.0
 -1.750000045000e-01  -1.151587516000e-01  0.0
 -2.000000030000e-01  -1.088889018000e-01  0.0
 -1.500000060000e-01  -1.214286014000e-01  0.0
 -1.750000045000e-01  -1.379364989500e-01  0.0
 -2.000000030000e-01  -1.544443965000e-01  0.0
 -1.500000060000e-01  -1.457143016000e-01  0.0
 -1.750000045000e-01  -1.622221991500e-01  0.0
 -1.500000060000e-01  -1.700000018000e-01  0.0
 -1.500000060000e-01  -7.285714149000e-02  0.0
 -1.750000045000e-01  -9.087302164500e-02  0.0
 -2.000000030000e-01  -1.088889018000e-01  0.0
 -1.500000060000e-01  -9.714287144500e-02  0.0
 -1.750000045000e-01  -1.151587516000e-01  0.0
 -1.500000060000e-01  -1.214286014000e-01  0.0
  1.832975030000e+00  -4.625000060000e-02  0.0
  1.853987515000e+00  -1.231250018000e-01  0.0
  1.875000000000e+00  -2.000000030000e-01  0.0
  1.916487515000e+00  -7.187499851000e-02  0.0
  1.937500000000e+00  -1.487499997100e-01  0.0
  2.000000000000e+00  -9.749999642000e-02  0.0
 -1.500000060000e-01  -1.700000018000e-01  0.0
 -1.360000037000e-01  -1.525000036000e-01  0.0
 -1.220000014000e-01  -1.350000054000e-01  0.0
 -1.500000060000e-01  -1.457143016000e-01  0.0
 -1.360000037000e-01  -1.282143034000e-01  0.0
 -1.500000060000e-01  -1.214286014000e-01  0.0
  2.849999964000e-01  -2.333333530000e-02  0.0
  2.837499976000e-01  -8.166666795000e-02  0.0
  2.824999988000e-01  -1.400000006000e-01  0.0
  3.174999952000e-01  -4.666666780000e-02  0.0
  3.162499964000e-01  -1.050000004500e-01  0.0
  3.499999940000e-01  -7.000000030000e-02  0.0
 -1.071429029000e-01  -1.700000018000e-01  0.0
 -8.571431040000e-02  -1.700000018000e-01  0.0
 -6.428571790000e-02  -1.700000018000e-01  0.0
 -9.857145324000e-02  -1.525000036000e-01  0.0
 -7.714286074000e-02  -1.525000036000e-01  0.0
 -9.000000358000e-02  -1.350000054000e-01  0.0
 -1.312499940000e-01  -2.000000030000e-01  0.0
 -1.191964484500e-01  -1.850000024000e-01  0.0
 -1.071429029000e-01  -1.700000018000e-01  0.0
 -1.406250000000e-01  -1.850000024000e-01  0.0
 -1.285714544500e-01  -1.700000018000e-01  0.0
 -1.500000060000e-01  -1.700000018000e-01  0.0
 -1.220000014000e-01  -1.350000054000e-01  0.0
 -1.060000024900e-01  -1.350000054000e-01  0.0
 -9.000000358000e-02  -1.350000054000e-01  0.0
 -1.185000017500e-01  -1.175000034500e-01  0.0
 -1.025000028400e-01  -1.175000034500e-01  0.0
 -1.150000021000e-01  -1.000000015000e-01  0.0
 -9.000000358000e-02  -1.350000054000e-01  0.0
 -1.060000024900e-01  -1.350000054000e-01  0.0
 -1.220000014000e-01  -1.350000054000e-01  0.0
 -9.857145324000e-02  -1.525000036000e-01  0.0
 -1.145714521500e-01  -1.525000036000e-01  0.0
 -1.071429029000e-01  -1.700000018000e-01  0.0
 -7.778175920000e-02  -9.192386270000e-02  0.0
 -9.639088065000e-02  -9.596193210000e-02  0.0
 -1.150000021000e-01  -1.000000015000e-01  0.0
 -8.389088139000e-02  -1.134619340500e-01  0.0
 -1.025000028400e-01  -1.175000034500e-01  0.0
 -9.000000358000e-02  -1.350000054000e-01  0.0
 -1.220000014000e-01  -1.350000054000e-01  0.0
 -1.185000017500e-01  -1.175000034500e-01  0.0
 -1.150000021000e-01  -1.000000015000e-01  0.0
 -1.360000037000e-01  -1.282143034000e-01  0.0
 -1.325000040500e-01  -1.107143014500e-01  0.0
 -1.500000060000e-01  -1.214286014000e-01  0.0
 -7.778175920000e-02  -9.192386270000e-02  0.0
 -8.389088139000e-02  -1.134619340500e-01  0.0
 -9.000000358000e-02  -1.350000054000e-01  0.0
 -6.639088876500e-02  -1.022535823500e-01  0.0
 -7.250001095500e-02  -1.237916537000e-01  0.0
 -5.500001833000e-02  -1.125833020000e-01  0.0
 -1.071429029000e-01  -1.700000018000e-01  0.0
 -1.145714521500e-01  -1.525000036000e-01  0.0
 -1.220000014000e-01  -1.350000054000e-01  0.0
 -1.285714544500e-01  -1.700000018000e-01  0.0
 -1.360000037000e-01  -1.525000036000e-01  0.0
 -1.500000060000e-01  -1.700000018000e-01  0.0
  6.250000093000e-03  -2.000000030000e-01  0.0
  4.062500153650e-02  -2.000000030000e-01  0.0
  7.500000298000e-02  -2.000000030000e-01  0.0
  1.383928512150e-02  -1.850000024000e-01  0.0
  4.821428656500e-02  -1.850000024000e-01  0.0
  2.142857015000e-02  -1.700000018000e-01  0.0
 -1.500000060000e-01  -7.285714149000e-02  0.0
 -1.500000060000e-01  -9.714287144500e-02  0.0
 -1.500000060000e-01  -1.214286014000e-01  0.0
 -1.325000040500e-01  -8.642857149500e-02  0.0
 -1.325000040500e-01  -1.107143014500e-01  0.0
 -1.150000021000e-01  -1.000000015000e-01  0.0
 -2.000000030000e-01  -6.333333254000e-02  0.0
 -1.750000045000e-01  -6.809523701500e-02  0.0
 -1.500000060000e-01  -7.285714149000e-02  0.0
 -1.750000045000e-01  -4.380952660000e-02  0.0
 -1.500000060000e-01  -4.857143107500e-02  0.0
 -1.500000060000e-01  -2.428572066000e-02  0.0
 -2.000000030000e-01  -6.333333254000e-02  0.0
 -2.000000030000e-01  -8.611111717000e-02  0.0
 -2.000000030000e-01  -1.088889018000e-01  0.0
 -1.750000045000e-01  -6.809523701500e-02  0.0
 -1.750000045000e-01  -9.087302164500e-02  0.0
 -1.500000060000e-01  -7.285714149000e-02  0.0
 -2.000000030000e-01  -6.333333254000e-02  0.0
 -1.750000045000e-01  -4.380952660000e-02  0.0
 -1.500000060000e-01  -2.428572066000e-02  0.0
 -2.000000030000e-01  -4.055555630500e-02  0.0
 -1.750000045000e-01  -2.103175036500e-02  0.0
 -2.000000030000e-01  -1.777778007000e-02  0.0
 -1.500000060000e-01  -2.428572066000e-02  0.0
 -1.500000060000e-01  -4.857143107500e-02  0.0
 -1.500000060000e-01  -7.285714149000e-02  0.0
 -1.281259023000e-01  -2.896608505500e-02  0.0
 -1.281259023000e-01  -5.325179547000e-02  0.0
 -1.062517986000e-01  -3.364644945000e-02  0.0
 -1.099999994000e-01   1.996667010000e-08  0.0
 -1.300000027000e-01  -1.214285034666e-02  0.0
 -1.500000060000e-01  -2.428572066000e-02  0.0
 -1.081258990000e-01  -1.682321474166e-02  0.0
 -1.281259023000e-01  -2.896608505500e-02  0.0
 -1.062517986000e-01  -3.364644945000e-02  0.0
 -1.500000060000e-01  -2.428572066000e-02  0.0
 -1.500000060000e-01   0.000000000000e+00  0.0
 -1.500000060000e-01   2.428572066000e-02  0.0
 -1.750000045000e-01  -2.103175036500e-02  0.0
 -1.750000045000e-01   3.253970295000e-03  0.0
 -2.000000030000e-01  -1.777778007000e-02  0.0
 -1.500000060000e-01  -7.285714149000e-02  0.0
 -1.226314045700e-01  -6.892856210000e-02  0.0
 -9.526280314000e-02  -6.499998271000e-02  0.0
 -1.281259023000e-01  -5.325179547000e-02  0.0
 -1.007573008700e-01  -4.932321608000e-02  0.0
 -1.062517986000e-01  -3.364644945000e-02  0.0
  3.499999940000e-01   1.400000006000e-01  0.0
  4.021931737500e-01   1.224999986500e-01  0.0
  4.543863535000e-01   1.049999967000e-01  0.0
  4.187500029500e-01   1.749999970000e-01  0.0
  4.709431827000e-01   1.574999950500e-01  0.0
  4.875000119000e-01   2.099999934000e-01  0.0
 -7.101409137000e-02  -4.349999130000e-02  0.0
 -8.313844725500e-02  -5.424998700500e-02  0.0
 -9.526280314000e-02  -6.499998271000e-02  0.0
 -6.449843011500e-02  -5.250913650000e-02  0.0
 -7.662278600000e-02  -6.325913220500e-02  0.0
 -5.798276886000e-02  -6.151828170000e-02  0.0
 -9.526280314000e-02  -6.499998271000e-02  0.0
 -1.226314045700e-01  -6.892856210000e-02  0.0
 -1.500000060000e-01  -7.285714149000e-02  0.0
 -1.051314026200e-01  -8.249999210500e-02  0.0
 -1.325000040500e-01  -8.642857149500e-02  0.0
 -1.150000021000e-01  -1.000000015000e-01  0.0
 -6.181925908000e-02  -1.656441018000e-02  0.0
 -7.051259093000e-02  -1.954082492500e-02  0.0
 -7.920592278000e-02  -2.251723967000e-02  0.0
 -5.862244405000e-02  -2.428220026000e-02  0.0
 -6.731577590000e-02  -2.725861500500e-02  0.0
 -5.542562902000e-02  -3.199999034000e-02  0.0
 -7.920592278000e-02  -2.251723967000e-02  0.0
 -9.272886069000e-02  -2.808184456000e-02  0.0
 -1.062517986000e-01  -3.364644945000e-02  0.0
 -7.511000707500e-02  -3.300861548500e-02  0.0
 -8.863294498500e-02  -3.857322037500e-02  0.0
 -7.101409137000e-02  -4.349999130000e-02  0.0
 -7.101409137000e-02  -4.349999130000e-02  0.0
 -6.321986019500e-02  -3.774999082000e-02  0.0
 -5.542562902000e-02  -3.199999034000e-02  0.0
 -7.511000707500e-02  -3.300861548500e-02  0.0
 -6.731577590000e-02  -2.725861500500e-02  0.0
 -7.920592278000e-02  -2.251723967000e-02  0.0
 -7.920592278000e-02  -2.251723967000e-02  0.0
 -9.460296109000e-02  -1.125860985166e-02  0.0
 -1.099999994000e-01   1.996667010000e-08  0.0
 -9.272886069000e-02  -2.808184456000e-02  0.0
 -1.081258990000e-01  -1.682321474166e-02  0.0
 -1.062517986000e-01  -3.364644945000e-02  0.0
 -7.778175920000e-02  -9.192386270000e-02  0.0
 -6.788226403000e-02  -7.672107220000e-02  0.0
 -5.798276886000e-02  -6.151828170000e-02  0.0
 -8.652228117000e-02  -7.846192270500e-02  0.0
 -7.662278600000e-02  -6.325913220500e-02  0.0
 -9.526280314000e-02  -6.499998271000e-02  0.0
 -7.101409137000e-02  -4.349999130000e-02  0.0
 -8.863294498500e-02  -3.857322037500e-02  0.0
 -1.062517986000e-01  -3.364644945000e-02  0.0
 -8.313844725500e-02  -5.424998700500e-02  0.0
 -1.007573008700e-01  -4.932321608000e-02  0.0
 -9.526280314000e-02  -6.499998271000e-02  0.0
 -7.778175920000e-02  -9.192386270000e-02  0.0
 -8.652228117000e-02  -7.846192270500e-02  0.0
 -9.526280314000e-02  -6.499998271000e-02  0.0
 -9.639088065000e-02  -9.596193210000e-02  0.0
 -1.051314026200e-01  -8.249999210500e-02  0.0
 -1.150000021000e-01  -1.000000015000e-01  0.0
[...]
POINT_DATA 2244
SCALARS field1 double 1
LOOKUP_TABLE default
  2.551788310433e-03 
  7.750472292172e-02 
  1.524576575330e-01 
  1.325778544965e-03 
  7.627871315626e-02 
  9.976877949607e-05 
  2.662155872186e-01 
  1.328370033167e-01 
 -5.415805852667e-04 
  1.340533854815e-01 
  6.748015795874e-04 
  1.891183744441e-03 
  1.504469856843e-01 
  1.947130963244e-01 
  2.389792069646e-01 
  2.073302296553e-01 
  2.515963402955e-01 
  2.642134736263e-01 
  2.405067881642e-01 
  1.952033357855e-01 
  1.498998834067e-01 
  1.846195444444e-01 
  1.393160920656e-01 
  1.287323007245e-01 
  3.267966633017e-01 
  2.956276644554e-01 
  2.644586656092e-01 
  2.846580829552e-01 
  2.534890841089e-01 
  2.425195026087e-01 
  2.858142559696e-01 
  1.491814262820e-01 
  1.254859659438e-02 
  2.837816904885e-01 
  1.471488608008e-01 
  2.817491250073e-01 
  1.292069483087e-01 
  1.819383493083e-01 
  2.346697503078e-01 
  1.855173687240e-01 
  2.382487697235e-01 
  2.418277891392e-01 
  2.959544819395e-01 
  3.051684332508e-01 
  3.143823845620e-01 
  3.029433036778e-01 
  3.121572549891e-01 
  3.099321254161e-01 
  1.933560034305e-01 
  2.287650278346e-01 
  2.641740522387e-01 
  2.296434392446e-01 
  2.650524636487e-01 
  2.659308750587e-01 
  6.491065913853e-04 
  9.689139307369e-02 
  1.931336795560e-01 
  6.284491673721e-02 
  1.590872032195e-01 
  1.250407268830e-01 
  2.313857795244e-01 
  2.466678133947e-01 
  2.619498472651e-01 
  2.652204073302e-01 
  2.805024412006e-01 
  2.990550351361e-01 
  2.633709388090e-01 
  2.474379480413e-01 
  2.315049572736e-01 
  2.284629188867e-01 
  2.125299281190e-01 
  1.935548989644e-01 
  3.315929129217e-01 
  3.149561310612e-01 
  2.983193492008e-01 
  2.980459784935e-01 
  2.814091966330e-01 
  2.644990440653e-01 
  2.325068833110e-01 
  2.666035428426e-01 
  3.007002023743e-01 
  2.381310757782e-01 
  2.722277353099e-01 
  2.437552682455e-01 
  3.317444504203e-01 
  2.984395014228e-01 
  2.651345524252e-01 
  3.420095509972e-01 
  3.087046019996e-01 
  3.522746515740e-01 
  1.917279764611e-01 
  2.130232208680e-01 
  2.343184652748e-01 
  1.597191842809e-01 
  1.810144286878e-01 
  1.277103921008e-01 
  1.630050046720e-03 
  2.647986043176e-03 
  3.665922039632e-03 
  1.736072912458e-01 
  1.746252272422e-01 
  3.455845324448e-01 
  3.264302108624e-01 
  2.850579627745e-01 
  2.436857146866e-01 
  3.138836879295e-01 
  2.725114398416e-01 
  3.013371649967e-01 
  3.417434516704e-01 
  3.328643345470e-01 
  3.239852174235e-01 
  3.500522458301e-01 
  3.411731287066e-01 
  3.583610399897e-01 
  3.409633179511e-01 
  3.032438643795e-01 
  2.655244108079e-01 
  3.329518559935e-01 
  2.952324024219e-01 
  3.249403940359e-01 
  3.428638202696e-01 
  3.507349158347e-01 
  3.586060113998e-01 
  3.616139430334e-01 
  3.694850385985e-01 
  3.803640657972e-01 
  3.586366325354e-01 
  3.426639247732e-01 
  3.266912170110e-01 
  3.305694571515e-01 
  3.145967493893e-01 
  3.025022817677e-01 
  2.807186772626e-01 
  3.198492276194e-01 
  3.589797779762e-01 
  2.900775772446e-01 
  3.292081276014e-01 
  2.994364772265e-01 
  3.547828613854e-01 
  3.578206467082e-01 
  3.608584320311e-01 
  3.678788097718e-01 
  3.709165950946e-01 
  3.809747581581e-01 
  3.258784021752e-01 
  3.147285153927e-01 
  3.035786286103e-01 
  3.135911902257e-01 
  3.024413034432e-01 
  3.013039782761e-01 
  3.090555845701e-01 
  3.364465417429e-01 
  3.638374989156e-01 
  1.798355916467e-01 
  2.072265488194e-01 
  5.061559872315e-02 
  2.657658271066e-01 
  2.874940521602e-01 
  3.092222772137e-01 
  3.005323415336e-01 
  3.222605665871e-01 
  3.352988559606e-01 
  3.047870631219e-01 
  3.154188462474e-01 
  3.260506293729e-01 
  3.034098696981e-01 
  3.140416528236e-01 
  3.020326762743e-01 
  9.874783794367e-02 
  1.540509706902e-01 
  2.093541034366e-01 
  1.283505271004e-01 
  1.836536598468e-01 
  1.579532162571e-01 
  2.034253985586e-01 
  2.508861734729e-01 
  2.983469483872e-01 
  2.345577686063e-01 
  2.820185435205e-01 
  2.656901386539e-01 
  2.654415570133e-01 
  2.132505999780e-01 
  1.610596429426e-01 
  2.361074258337e-01 
  1.839164687984e-01 
  2.067732946541e-01 
  2.023066412128e-01 
  2.398993885949e-01 
  2.774921359771e-01 
  2.506954957908e-01 
  2.882882431729e-01 
  2.990843503688e-01 
  3.325630370638e-01 
  3.352117991615e-01 
  3.378605612593e-01 
  3.201872085266e-01 
  3.228359706243e-01 
  3.078113799894e-01 
  2.675146545545e-01 
  2.833543650534e-01 
  2.991940755522e-01 
  2.885511482777e-01 
  3.043908587765e-01 
  3.095876420009e-01 
  3.292837782060e-01 
  3.174550417057e-01 
  3.056263052053e-01 
  3.143538612243e-01 
  3.025251247240e-01 
  2.994239442427e-01 
  2.072111168098e-01 
  1.538045602800e-01 
  1.003980037502e-01 
  1.948896638308e-01 
  1.414831073010e-01 
  1.825682108518e-01 
  3.508230359787e-01 
  3.084801006047e-01 
  2.661371652308e-01 
  3.080670588900e-01 
  2.657241235160e-01 
  2.653110818013e-01 
  2.750032129219e-01 
  2.833124852883e-01 
  2.916217576547e-01 
  2.761384112558e-01 
  2.844476836222e-01 
  2.772736095897e-01 
  3.731243238967e-01 
  3.472055515828e-01 
  3.212867792688e-01 
  3.884414134893e-01 
  3.625226411754e-01 
  4.037585030819e-01 
  3.699583473353e-01 
  3.593623528471e-01 
  3.487663583589e-01 
  3.179223278088e-01 
  3.073263333206e-01 
  2.658863082822e-01 
  3.312906248335e-01 
  3.647797628826e-01 
  3.982689009318e-01 
  3.342898914094e-01 
  3.677790294585e-01 
  3.372891579853e-01 
  3.998955390889e-01 
  3.655919991836e-01 
  3.312884592784e-01 
  3.771974220217e-01 
  3.428938821165e-01 
  3.544993049545e-01 
  4.575935463539e-01 
  4.297660095432e-01 
  4.019384727325e-01 
  4.045907458109e-01 
  3.767632090002e-01 
  3.515879452680e-01 
  3.521194727738e-01 
  3.443249871763e-01 
  3.365305015788e-01 
  3.776959988683e-01 
  3.699015132708e-01 
  4.032725249628e-01 
  3.492265363681e-01 
  3.612119775424e-01 
  3.731974187168e-01 
  4.041136721215e-01 
  4.160991132958e-01 
  4.590008078749e-01 
  3.723301992811e-01 
  3.196105507245e-01 
  2.668909021679e-01 
  3.463767905680e-01 
  2.936571420113e-01 
  3.204233818548e-01 
  4.891146995670e-01 
  4.749604851696e-01 
  4.608062707721e-01 
  4.323172257054e-01 
  4.181630113080e-01 
  3.755197518438e-01 
  1.397031613323e-03 
  1.797731910470e-01 
  3.581493504808e-01 
 -7.549120287899e-04 
  1.776212474049e-01 
 -2.906855670903e-03 
  4.675618026932e-01 
  4.175475071573e-01 
  3.675332116214e-01 
  4.250174114875e-01 
  3.750031159516e-01 
  3.824730202818e-01 
  3.665025535683e-01 
  4.168959003273e-01 
  4.672892470863e-01 
  4.248129261283e-01 
  4.752062728874e-01 
  4.831232986884e-01 
  3.812212727306e-01 
  3.736539068633e-01 
  3.660865409960e-01 
  1.942992385678e-01 
  1.867318727005e-01 
  7.377204405017e-03 
  4.607899183951e-01 
  4.232032984420e-01 
  3.856166784889e-01 
  4.327598857572e-01 
  3.951732658041e-01 
  4.047298531193e-01 
  4.550692957107e-01 
  4.067211516619e-01 
  3.583730076131e-01 
  4.699493566938e-01 
  4.216012126450e-01 
  4.848294176768e-01 
  4.880057605454e-01 
  4.322164057351e-01 
  3.764270509247e-01 
  4.441999436804e-01 
  3.884105888700e-01 
  4.003941268153e-01 
  3.215760313882e-01 
  3.300147191629e-01 
  3.384534069376e-01 
  3.629357503581e-01 
  3.713744381328e-01 
  4.042954693279e-01 
  3.502628647444e-01 
  3.788496260690e-01 
  4.074363873935e-01 
  3.670316382674e-01 
  3.956183995920e-01 
  3.838004117905e-01 
 -1.513454255151e-03 
  8.144546329257e-02 
  1.644043808403e-01 
  3.346060828267e-03 
  8.630497837599e-02 
  8.205575911686e-03 
  1.620827578552e-01 
  2.122210397870e-01 
  2.623593217188e-01 
  2.142709076468e-01 
  2.644091895786e-01 
  2.664590574384e-01 
  2.795541093415e-01 
  1.431928366756e-01 
  6.831564009638e-03 
  1.393554572039e-01 
  2.994184537950e-03 
 -8.431949337385e-04 
 -5.776988111138e-03 
  1.463935533766e-02 
  3.505569878646e-02 
  4.559988705357e-02 
  6.601623050237e-02 
  9.697676221828e-02 
  2.070516007949e-03 
 -2.335119997996e-03 
 -6.740756003941e-03 
  7.835227356107e-02 
  7.394663755512e-02 
  1.546340311142e-01 
  2.175667953753e-01 
  1.092692202439e-01 
  9.716451125172e-04 
  1.852527107013e-01 
  7.695513556992e-02 
  1.529386260273e-01 
  1.632092158887e-01 
  2.178985175166e-01 
  2.725878191445e-01 
  8.717956327078e-02 
  1.418688648987e-01 
  1.114991065283e-02 
 -8.850064593608e-03 
  4.361652626421e-02 
  9.608311712203e-02 
  7.266735705064e-02 
  1.251339479085e-01 
  1.541847786949e-01 
  2.896790965829e-03 
  3.402363479026e-03 
  3.907935992224e-03 
  1.935693290214e-01 
  1.940749015346e-01 
  3.842418670770e-01 
  6.052443228858e-03 
  1.870740058603e-01 
  3.680955684918e-01 
  3.984001525729e-03 
  1.850055641572e-01 
  1.915559822600e-03 
  3.391738120133e-01 
  1.725429574862e-01 
  5.912102959008e-03 
  3.121863623176e-01 
  1.455555077905e-01 
  2.851989126220e-01 
  2.557643452992e-03 
  1.431308400694e-01 
  2.837040366858e-01 
  6.264789801129e-03 
  1.468379864175e-01 
  9.971936149265e-03 
  9.106295936755e-03 
  1.797907530124e-01 
  3.504752100881e-01 
  1.948857034535e-01 
  3.655701605292e-01 
  3.806651109702e-01 
  3.228873896906e-01 
  1.658036960469e-01 
  8.720002403183e-03 
  3.306435177360e-01 
  1.735598240923e-01 
  3.383996457813e-01 
  1.973151451609e-01 
  9.899597406530e-02 
  6.768029697042e-04 
  1.004803108521e-01 
  2.161139756505e-03 
  3.645476543305e-03 
  1.559089120747e-02 
  1.476165213315e-01 
  2.796421514555e-01 
  1.825094717867e-01 
  3.145351019107e-01 
  3.494280523659e-01 
  2.716576588352e-01 
  3.044960210157e-01 
  3.373343831962e-01 
  3.112585652271e-01 
  3.440969274076e-01 
  3.508594716189e-01 
  2.714290548510e-01 
  1.398817619763e-01 
  8.334469101665e-03 
  2.939140861248e-01 
  1.623667932502e-01 
  3.163991173986e-01 
  4.857808013339e-01 
  4.426050596326e-01 
  3.994293179312e-01 
  4.488925457262e-01 
  4.057168040249e-01 
  4.120042901186e-01 
  2.676402023848e-01 
  2.646866497853e-01 
  2.617330971859e-01 
  3.026896962885e-01 
  2.997361436890e-01 
  3.377391901921e-01 
  1.378505661814e-03 
  3.941339551478e-03 
  6.504173441141e-03 
  1.382198306828e-01 
  1.407826645725e-01 
  2.750611557038e-01 
  3.101153745323e-02 
  1.419684534309e-02 
 -2.617846767045e-03 
  1.400791823547e-02 
 -2.806773874669e-03 
 -2.995700982293e-03 
  3.461643698547e-01 
  3.532616185465e-01 
  3.603588672383e-01 
  3.270268409228e-01 
  3.341240896146e-01 
  3.078893119909e-01 
  3.620546530161e-01 
  3.707989558289e-01 
  3.795432586417e-01 
  3.718384694090e-01 
  3.805827722218e-01 
  3.816222858020e-01 
  3.780783063664e-01 
  3.603797634146e-01 
  3.426812204629e-01 
  3.597500088221e-01 
  3.420514658704e-01 
  3.414217112779e-01 
  3.426867436500e-01 
  3.600748468519e-01 
  3.774629500539e-01 
  3.511032572706e-01 
  3.684913604726e-01 
  3.595197708913e-01 
  3.406883534083e-01 
  3.425894649751e-01 
  3.444905765420e-01 
  3.033795258333e-01 
  3.052806374001e-01 
  2.660706982583e-01 
  6.704804952718e-03 
 -9.323988223533e-03 
 -2.535278139978e-02 
  1.365511949251e-01 
  1.205224017488e-01 
  2.663975848974e-01 
  3.620326964731e-01 
  3.217874429571e-01 
  2.815421894412e-01 
  3.331112241052e-01 
  2.928659705892e-01 
  3.041897517373e-01 
  3.613129121586e-01 
  3.591140181100e-01 
  3.569151240614e-01 
  3.225423949105e-01 
  3.203435008619e-01 
  2.837718776624e-01 
  2.017997678423e-01 
  2.527136641917e-01 
  3.036275605412e-01 
  2.404402414240e-01 
  2.913541377734e-01 
  2.790807150056e-01 
  2.788681646935e-01 
  2.412999627155e-01 
  2.037317607374e-01 
  2.255288182313e-01 
  1.879606162532e-01 
  1.721894717690e-01 
  3.025110314287e-01 
  2.884035783727e-01 
  2.742961253166e-01 
  3.064094212441e-01 
  2.923019681881e-01 
  3.103078110595e-01 
  2.738942243811e-01 
  2.875872967450e-01 
  3.012803691090e-01 
  2.383590882276e-01 
  2.520521605916e-01 
  2.028239520741e-01 
  3.324576902144e-01 
  3.203856087811e-01 
  3.083135273479e-01 
  3.410082906792e-01 
  3.289362092460e-01 
  3.495588911440e-01 
  3.060980192807e-01 
  3.069420260530e-01 
  3.077860328254e-01 
  3.264029626813e-01 
  3.272469694536e-01 
  3.467079060818e-01 
  2.045757184380e-01 
  1.930177533437e-01 
  1.814597882494e-01 
  1.522702617602e-01 
  1.407122966659e-01 
  9.996480508236e-02 
  2.020291086059e-01 
  2.400969473610e-01 
  2.781647861162e-01 
  1.918001449497e-01 
  2.298679837048e-01 
  1.815711812934e-01 
  2.769346253695e-01 
  2.399651892286e-01 
  2.029957530877e-01 
  2.297017732859e-01 
  1.927323371450e-01 
  1.824689212024e-01 
  3.460324604672e-01 
  3.278548815245e-01 
  3.096773025819e-01 
  3.312749508546e-01 
  3.130973719119e-01 
  3.165174412420e-01 
  2.647697521252e-01 
  2.596433472678e-01 
  2.545169424104e-01 
  2.078097109840e-01 
  2.026833061266e-01 
  1.508496698428e-01 
  2.654671772371e-01 
  3.057175701395e-01 
  3.459679630419e-01 
  2.614543729787e-01 
  3.017047658811e-01 
  2.574415687204e-01 
  1.499970628595e-01 
  1.534740032239e-01 
  1.569509435883e-01 
  7.527335268197e-02 
  7.875029304641e-02 
  5.496425044886e-04 
  1.581746237641e-01 
  1.541071016018e-01 
  1.500395794395e-01 
  2.069131076622e-01 
  2.028455854999e-01 
  2.556515915603e-01 
  2.296242374763e-01 
  1.184195019712e-01 
  7.214766466113e-03 
  1.142543609496e-01 
  3.049625444502e-03 
 -1.115515577109e-03 
  2.402077776601e-02 
  1.358399733656e-02 
  3.147216907112e-03 
  1.761155330917e-01 
  1.656787526623e-01 
  3.282102884174e-01 
  2.574432936319e-01 
  2.507417356981e-01 
  2.440401777643e-01 
  2.075925928367e-01 
  2.008910349030e-01 
  1.577418920416e-01 
  2.939206843241e-01 
  1.458132066767e-01 
 -2.294270970614e-03 
  1.583765351997e-01 
  1.026905755242e-02 
  2.283238607544e-02 
  3.133677737231e-01 
  3.214701134118e-01 
  3.295724531004e-01 
  2.973132406470e-01 
  3.054155803357e-01 
  2.812587075709e-01 
  3.286291026920e-01 
  3.217858133888e-01 
  3.149425240856e-01 
  3.193675981328e-01 
  3.125243088296e-01 
  3.101060935735e-01 
  2.391121200846e-01 
  2.615648324534e-01 
  2.840175448221e-01 
  2.298370237448e-01 
  2.522897361136e-01 
  2.205619274051e-01 
  2.799097531865e-01 
  2.607833239978e-01 
  2.416568948091e-01 
  2.967502626659e-01 
  2.776238334772e-01 
  3.135907721453e-01 
  2.245899522474e-01 
  2.552170625848e-01 
  2.858441729222e-01 
  2.598898798435e-01 
  2.905169901809e-01 
  2.951898074395e-01 
  2.426443366259e-01 
  2.291435223084e-01 
  2.156427079909e-01 
  1.990107937085e-01 
  1.855099793910e-01 
  1.553772507911e-01 
  3.289246411816e-01 
  3.375957202974e-01 
  3.462667994131e-01 
  3.056546577788e-01 
  3.143257368945e-01 
  2.823846743759e-01 
  3.152057273185e-01 
  2.792726702053e-01 
  2.433396130921e-01 
  2.868603902724e-01 
  2.509273331593e-01 
  2.585150532264e-01 
  3.454177853127e-01 
  3.303596928072e-01 
  3.153016003018e-01 
  3.017147372505e-01 
  2.866566447450e-01 
  2.580116891882e-01 
  2.295346867665e-01 
  2.598139367278e-01 
  2.900931866892e-01 
  1.193476233733e-01 
  1.496268733346e-01 
  9.160559980135e-03 
  3.074603771030e-01 
  2.916996871746e-01 
  2.759389972461e-01 
  3.279379246476e-01 
  3.121772347191e-01 
  3.484154721922e-01 
  5.823270700207e-02 
  1.672287352577e-01 
  2.762247635133e-01 
  1.269929545368e-01 
  2.359889827924e-01 
  1.957532020715e-01 
  3.349515001018e-02 
  1.538016353563e-02 
 -2.734822938924e-03 
  6.634560672414e-02 
  4.823062024958e-02 
  9.919606343809e-02 
  3.051397322236e-02 
  1.354089702867e-02 
 -3.432179165014e-03 
  1.454177085138e-02 
 -2.431305342308e-03 
 -1.430431519601e-03 
  1.006972051794e-01 
  5.089980032140e-02 
  1.102395463416e-03 
  1.335007400431e-01 
  8.370333518514e-02 
  1.663042749069e-01 
  2.502181048643e-01 
  2.084023130550e-01 
  1.665865212457e-01 
  1.240231012072e-01 
  8.220730939793e-02 
 -2.171902449811e-03 
  2.569793728288e-01 
  3.048010564247e-01 
  3.526227400207e-01 
  2.684105946506e-01 
  3.162322782466e-01 
  2.798418164725e-01 
  2.536156459246e-01 
  2.679364349315e-01 
  2.822572239384e-01 
  2.115284534547e-01 
  2.258492424616e-01 
  1.694412609847e-01 
  1.716182063023e-03 
  5.106276083221e-02 
  1.004093396014e-01 
 -2.036855464274e-05 
  4.932621021454e-02 
 -1.756919172309e-03 
  2.056310339991e-01 
  1.528760444245e-01 
  1.001210548499e-01 
  1.875312125881e-01 
  1.347762230135e-01 
  1.694313911772e-01 
 -1.110157498972e-03 
  1.739887052420e-03 
  4.589931603811e-03 
  1.252956111316e-01 
  1.281456556830e-01 
  2.517013797621e-01 
  3.422111917221e-01 
  1.751019825234e-01 
  7.992773324803e-03 
  3.326619023476e-01 
  1.655526931489e-01 
  3.231126129731e-01 
  2.488314402256e-01 
  1.800666266572e-01 
  1.113018130888e-01 
  3.056699829883e-01 
  2.369051694199e-01 
  3.625085257510e-01 
  1.520144138659e-01 
  7.733507253788e-02 
  2.655731209838e-03 
  1.392058491251e-01 
  6.452650779710e-02 
  1.263972843844e-01 
  3.619371464728e-01 
  1.821356025330e-01 
  2.334058593295e-03 
  1.851403194781e-01 
  5.338775538376e-03 
  8.343492483457e-03 
  3.525646248320e-01 
  1.758296043007e-01 
 -9.054162305035e-04 
  1.798180531449e-01 
  3.083032613717e-03 
  7.071481457938e-03 
  2.786488515859e-01 
  1.418294813766e-01 
  5.010111167188e-03 
  2.591217437506e-01 
  1.223023735412e-01 
  2.395946359153e-01 
  2.493805239713e-01 
  1.255667998957e-01 
  1.753075820018e-03 
  2.970720254072e-01 
  1.732583013316e-01 
  3.447635268431e-01 
  3.079277554062e-01 
  2.988386095247e-01 
  2.897494636432e-01 
  3.072801464912e-01 
  2.981910006097e-01 
  3.066325375763e-01 
  3.904044145827e-01 
  1.971417427047e-01 
  3.879070826753e-03 
  1.964288584408e-01 
  3.166186562812e-03 
  2.453302298872e-03 
  3.509186876557e-01 
  3.489651662423e-01 
  3.470116448290e-01 
  3.816247363273e-01 
  3.796712149140e-01 
  4.123307849989e-01 
  3.432203126513e-01 
  3.485893526148e-01 
  3.539583925783e-01 
  2.982505210425e-01 
  3.036195610060e-01 
  2.532807294337e-01 
  3.669139160432e-01 
  3.289075605244e-01 
  2.909012050057e-01 
  3.562151165567e-01 
  3.182087610380e-01 
  3.455163170702e-01 
  2.940088501439e-01 
  2.896685359228e-01 
  2.853282217017e-01 
  3.194404164379e-01 
  3.151001022167e-01 
  3.448719827318e-01 
  3.503200323317e-01 
  3.400402310332e-01 
  3.297604297347e-01 
  3.810394756670e-01 
  3.707596743685e-01 
  4.117589190023e-01 
  4.120926525279e-01 
  4.378397269061e-01 
  4.635868012844e-01 
  3.808259679038e-01 
  4.065730422821e-01 
  3.495592832797e-01 
  4.122304089136e-01 
  3.815539689602e-01 
  3.508775290069e-01 
  3.994988742507e-01 
  3.688224342974e-01 
  3.867673395879e-01 
  3.499119274679e-01 
  3.798657201603e-01 
  4.098195128526e-01 
  3.402743849890e-01 
  3.702281776814e-01 
  3.306368425101e-01 
  3.851463222719e-01 
  3.776402458051e-01 
  3.701341693384e-01 
  4.269063701147e-01 
  4.194002936479e-01 
  4.686664179575e-01 
  3.870502416510e-01 
  3.726430557315e-01 
  3.582358698120e-01 
  2.000847983786e-01 
  1.856776124591e-01 
  1.311935510621e-02 
  3.764468854507e-01 
  4.211552245502e-01 
  4.658635636498e-01 
  4.305998493240e-01 
  4.753081884236e-01 
  4.847528131974e-01 
  4.655477948943e-01 
  4.194899449624e-01 
  3.734320950304e-01 
  4.063756863813e-01 
  3.603178364494e-01 
  3.472035778683e-01 
  3.383706560705e-01 
  3.543294317669e-01 
  3.702882074633e-01 
  3.729475939587e-01 
  3.889063696551e-01 
  4.075245318468e-01 
  3.690601962902e-01 
  3.531640704136e-01 
  3.372679445370e-01 
  3.285706210134e-01 
  3.126744951368e-01 
  2.880810457366e-01 
  4.782297847192e-01 
  4.735589789907e-01 
  4.688881732622e-01 
  4.234728748016e-01 
  4.188020690731e-01 
  3.687159648841e-01 
  3.863282210027e-01 
  4.249407194800e-01 
  4.635532179572e-01 
  3.987789130607e-01 
  4.373914115380e-01 
  4.112296051187e-01 
  7.996558085135e-03 
  1.885248261711e-01 
  3.690530942571e-01 
  1.976521183981e-01 
  3.781803864842e-01 
  3.873076787112e-01 