# vtk DataFile Version 2
NuDG++ 2D simulation
ASCII
DATASET UNSTRUCTURED_GRID

POINTS 2244 double
 -1.656250060000e-01  -2.000000030000e-01  0.0
 -1.828125045000e-01  -1.772221997500e-01  0.0
 -2.000000030000e-01  -1.544443965000e-01  0.0
 -1.828125045000e-01  -2.000000030000e-01  0.0
 -2.000000030000e-01  -1.772221997500e-01  0.0
 -2.000000030000e-01  -2.000000030000e-01  0.0
 -6.428571790000e-02  -1.700000018000e-01  0.0
 -8.058035746000e-02  -1.850000024000e-01  0.0
 -9.687499702000e-02  -2.000000030000e-01  0.0
 -6.339285895000e-02  -1.850000024000e-01  0.0
 -7.968749851000e-02  -2.000000030000e-01  0.0
 -6.250000000000e-02  -2.000000030000e-01  0.0
 -2.000000030000e-01  -1.544443965000e-01  0.0
 -1.750000045000e-01  -1.379364989500e-01  0.0
 -1.500000060000e-01  -1.214286014000e-01  0.0
 -2.000000030000e-01  -1.316666491500e-01  0.0
 -1.750000045000e-01  -1.151587516000e-01  0.0
 -2.000000030000e-01  -1.088889018000e-01  0.0
 -1.500000060000e-01  -1.214286014000e-01  0.0
 -1.750000045000e-01  -1.379364989500e-01  0.0
 -2.000000030000e-01  -1.544443965000e-01  0.0
 -1.500000060000e-01  -1.457143016000e-01  0.0
 -1.750000045000e-01  -1.622221991500e-01  0.0
 -1.500000060000e-01  -1.700000018000e-01  0.0
 -1.500000060000e-01  -7.285714149000e-02  0.0
 -1.750000045000e-01  -9.087302164500e-02  0.0
 -2.000000030000e-01  -1.088889018000e-01  0.0
 -1.500000060000e-01  -9.714287144500e-02  0.0
 -1.750000045000e-01  -1.151587516000e-01  0.0
 -1.500000060000e-01  -1.214286014000e-01  0.0
  1.832975030000e+00  -4.625000060000e-02  0.0
  1.853987515000e+00  -1.231250018000e-01  0.0
  1.875000000000e+00  -2.000000030000e-01  0.0
  1.916487515000e+00  -7.187499851000e-02  0.0
  1.937500000000e+00  -1.487499997100e-01  0.0
  2.000000000000e+00  -9.749999642000e-02  0.0
 -1.500000060000e-01  -1.700000018000e-01  0.0
 -1.360000037000e-01  -1.525000036000e-01  0.0
 -1.220000014000e-01  -1.350000054000e-01  0.0
 -1.500000060000e-01  -1.457143016000e-01  0.0
 -1.360000037000e-01  -1.282143034000e-01  0.0
 -1.500000060000e-01  -1.214286014000e-01  0.0
  2.849999964000e-01  -2.333333530000e-02  0.0
  2.837499976000e-01  -8.166666795000e-02  0.0
  2.824999988000e-01  -1.400000006000e-01  0.0
  3.174999952000e-01  -4.666666780000e-02  0.0
  3.162499964000e-01  -1.050000004500e-01  0.0
  3.499999940000e-01  -7.000000030000e-02  0.0
 -1.071429029000e-01  -1.700000018000e-01  0.0
 -8.571431040000e-02  -1.700000018000e-01  0.0
 -6.428571790000e-02  -1.700000018000e-01  0.0
 -9.857145324000e-02  -1.525000036000e-01  0.0
 -7.714286074000e-02  -1.525000036000e-01  0.0
 -9.000000358000e-02  -1.350000054000e-01  0.0
 -1.312499940000e-01  -2.000000030000e-01  0.0
 -1.191964484500e-01  -1.850000024000e-01  0.0
 -1.071429029000e-01  -1.700000018000e-01  0.0
 -1.406250000000e-01  -1.850000024000e-01  0.0
 -1.285714544500e-01  -1.700000018000e-01  0.0
 -1.500000060000e-01  -1.700000018000e-01  0.0
 -1.220000014000e-01  -1.350000054000e-01  0.0
 -1.060000024900e-01  -1.350000054000e-01  0.0
 -9.000000358000e-02  -1.350000054000e-01  0.0
 -1.185000017500e-01  -1.175000034500e-01  0.0
 -1.025000028400e-01  -1.175000034500e-01  0.0
 -1.150000021000e-01  -1.000000015000e-01  0.0
 -9.000000358000e-02  -1.350000054000e-01  0.0
 -1.060000024900e-01  -1.350000054000e-01  0.0
 -1.220000014000e-01  -1.350000054000e-01  0.0
 -9.857145324000e-02  -1.525000036000e-01  0.0
 -1.145714521500e-01  -1.525000036000e-01  0.0
 -1.071429029000e-01  -1.700000018000e-01  0.0
 -7.778175920000e-02  -9.192386270000e-02  0.0
 -9.639088065000e-02  -9.596193210000e-02  0.0
 -1.150000021000e-01  -1.000000015000e-01  0.0
 -8.389088139000e-02  -1.134619340500e-01  0.0
 -1.025000028400e-01  -1.175000034500e-01  0.0
 -9.000000358000e-02  -1.350000054000e-01  0.0
 -1.220000014000e-01  -1.350000054000e-01  0.0
 -1.185000017500e-01  -1.175000034500e-01  0.0
 -1.150000021000e-01  -1.000000015000e-01  0.0
 -1.360000037000e-01  -1.282143034000e-01  0.0
 -1.325000040500e-01  -1.107143014500e-01  0.0
 -1.500000060000e-01  -1.214286014000e-01  0.0
 -7.778175920000e-02  -9.192386270000e-02  0.0
 -8.389088139000e-02  -1.134619340500e-01  0.0
 -9.000000358000e-02  -1.350000054000e-01  0.0
 -6.639088876500e-02  -1.022535823500e-01  0.0
 -7.250001095500e-02  -1.237916537000e-01  0.0
 -5.500001833000e-02  -1.125833020000e-01  0.0
 -1.071429029000e-01  -1.700000018000e-01  0.0
 -1.145714521500e-01  -1.525000036000e-01  0.0
 -1.220000014000e-01  -1.350000054000e-01  0.0
 -1.285714544500e-01  -1.700000018000e-01  0.0
 -1.360000037000e-01  -1.525000036000e-01  0.0
 -1.500000060000e-01  -1.700000018000e-01  0.0
  6.250000093000e-03  -2.000000030000e-01  0.0
  4.062500153650e-02  -2.000000030000e-01  0.0
  7.500000298000e-02  -2.000000030000e-01  0.0
  1.383928512150e-02  -1.850000024000e-01  0.0
  4.821428656500e-02  -1.850000024000e-01  0.0
  2.142857015000e-02  -1.700000018000e-01  0.0
 -1.500000060000e-01  -7.285714149000e-02  0.0
 -1.500000060000e-01  -9.714287144500e-02  0.0
 -1.500000060000e-01  -1.214286014000e-01  0.0
 -1.325000040500e-01  -8.642857149500e-02  0.0
 -1.325000040500e-01  -1.107143014500e-01  0.0
 -1.150000021000e-01  -1.000000015000e-01  0.0
 -2.000000030000e-01  -6.333333254000e-02  0.0
 -1.750000045000e-01  -6.809523701500e-02  0.0
 -1.500000060000e-01  -7.285714149000e-02  0.0
 -1.750000045000e-01  -4.380952660000e-02  0.0
 -1.500000060000e-01  -4.857143107500e-02  0.0
 -1.500000060000e-01  -2.428572066000e-02  0.0
 -2.000000030000e-01  -6.333333254000e-02  0.0
 -2.000000030000e-01  -8.611111717000e-02  0.0
 -2.000000030000e-01  -1.088889018000e-01  0.0
 -1.750000045000e-01  -6.809523701500e-02  0.0
 -1.750000045000e-01  -9.087302164500e-02  0.0
 -1.500000060000e-01  -7.285714149000e-02  0.0
 -2.000000030000e-01  -6.333333254000e-02  0.0
 -1.750000045000e-01  -4.380952660000e-02  0.0
 -1.500000060000e-01  -2.428572066000e-02  0.0
 -2.000000030000e-01  -4.055555630500e-02  0.0
 -1.750000045000e-01  -2.103175036500e-02  0.0
 -2.000000030000e-01  -1.777778007000e-02  0.0
 -1.500000060000e-01  -2.428572066000e-02  0.0
 -1.500000060000e-01  -4.857143107500e-02  0.0
 -1.500000060000e-01  -7.285714149000e-02  0.0
 -1.281259023000e-01  -2.896608505500e-02  0.0
 -1.281259023000e-01  -5.325179547000e-02  0.0
 -1.062517986000e-01  -3.364644945000e-02  0.0
 -1.099999994000e-01   1.996667010000e-08  0.0
 -1.300000027000e-01  -1.214285034666e-02  0.0
 -1.500000060000e-01  -2.428572066000e-02  0.0
 -1.081258990000e-01  -1.682321474166e-02  0.0
 -1.281259023000e-01  -2.896608505500e-02  0.0
 -1.062517986000e-01  -3.364644945000e-02  0.0
 -1.500000060000e-01  -2.428572066000e-02  0.0
 -1.500000060000e-01   0.000000000000e+00  0.0
 -1.500000060000e-01   2.428572066000e-02  0.0
 -1.750000045000e-01  -2.103175036500e-02  0.0
 -1.750000045000e-01   3.253970295000e-03  0.0
 -2.000000030000e-01  -1.777778007000e-02  0.0
 -1.500000060000e-01  -7.285714149000e-02  0.0
 -1.226314045700e-01  -6.892856210000e-02  0.0
 -9.526280314000e-02  -6.499998271000e-02  0.0
 -1.281259023000e-01  -5.325179547000e-02  0.0
 -1.007573008700e-01  -4.932321608000e-02  0.0
 -1.062517986000e-01  -3.364644945000e-02  0.0
  3.499999940000e-01   1.400000006000e-01  0.0
  4.021931737500e-01   1.224999986500e-01  0.0
  4.543863535000e-01   1.049999967000e-01  0.0
  4.187500029500e-01   1.749999970000e-01  0.0
  4.709431827000e-01   1.574999950500e-01  0.0
  4.875000119000e-01   2.099999934000e-01  0.0
 -7.101409137000e-02  -4.349999130000e-02  0.0
 -8.313844725500e-02  -5.424998700500e-02  0.0
 -9.526280314000e-02  -6.499998271000e-02  0.0
 -6.449843011500e-02  -5.250913650000e-02  0.0
 -7.662278600000e-02  -6.325913220500e-02  0.0
 -5.798276886000e-02  -6.151828170000e-02  0.0
 -9.526280314000e-02  -6.499998271000e-02  0.0
 -1.226314045700e-01  -6.892856210000e-02  0.0
 -1.500000060000e-01  -7.285714149000e-02  0.0
 -1.051314026200e-01  -8.249999210500e-02  0.0
 -1.325000040500e-01  -8.642857149500e-02  0.0
 -1.150000021000e-01  -1.000000015000e-01  0.0
 -6.181925908000e-02  -1.656441018000e-02  0.0
 -7.051259093000e-02  -1.954082492500e-02  0.0
 -7.920592278000e-02  -2.251723967000e-02  0.0
 -5.862244405000e-02  -2.428220026000e-02  0.0
 -6.731577590000e-02  -2.725861500500e-02  0.0
 -5.542562902000e-02  -3.199999034000e-02  0.0
 -7.920592278000e-02  -2.251723967000e-02  0.0
 -9.272886069000e-02  -2.808184456000e-02  0.0
 -1.062517986000e-01  -3.364644945000e-02  0.0
 -7.511000707500e-02  -3.300861548500e-02  0.0
 -8.863294498500e-02  -3.857322037500e-02  0.0
 -7.101409137000e-02  -4.349999130000e-02  0.0
 -7.101409137000e-02  -4.349999130000e-02  0.0
 -6.321986019500e-02  -3.774999082000e-02  0.0
 -5.542562902000e-02  -3.199999034000e-02  0.0
 -7.511000707500e-02  -3.300861548500e-02  0.0
 -6.731577590000e-02  -2.725861500500e-02  0.0
 -7.920592278000e-02  -2.251723967000e-02  0.0
 -7.920592278000e-02  -2.251723967000e-02  0.0
 -9.460296109000e-02  -1.125860985166e-02  0.0
 -1.099999994000e-01   1.996667010000e-08  0.0
 -9.272886069000e-02  -2.808184456000e-02  0.0
 -1.081258990000e-01  -1.682321474166e-02  0.0
 -1.062517986000e-01  -3.364644945000e-02  0.0
 -7.778175920000e-02  -9.192386270000e-02  0.0
 -6.788226403000e-02  -7.672107220000e-02  0.0
 -5.798276886000e-02  -6.151828170000e-02  0.0
 -8.652228117000e-02  -7.846192270500e-02  0.0
 -7.662278600000e-02  -6.325913220500e-02  0.0
 -9.526280314000e-02  -6.499998271000e-02  0.0
 -7.101409137000e-02  -4.349999130000e-02  0.0
 -8.863294498500e-02  -3.857322037500e-02  0.0
 -1.062517986000e-01  -3.364644945000e-02  0.0
 -8.313844725500e-02  -5.424998700500e-02  0.0
 -1.007573008700e-01  -4.932321608000e-02  0.0
 -9.526280314000e-02  -6.499998271000e-02  0.0
 -7.778175920000e-02  -9.192386270000e-02  0.0
 -8.652228117000e-02  -7.846192270500e-02  0.0
 -9.526280314000e-02  -6.499998271000e-02  0.0
 -9.639088065000e-02  -9.596193210000e-02  0.0
 -1.051314026200e-01  -8.249999210500e-02  0.0
 -1.150000021000e-01  -1.000000015000e-01  0.0
[...]
POINT_DATA 2244
SCALARS field1 double 1
LOOKUP_TABLE default
  2.175528438981e-03 
  1.457015423635e-02 
  2.696478003371e-02 
  1.288774170923e-03 
  1.368339996829e-02 
  4.020199028658e-04 
  6.095850183388e-02 
  3.122635771240e-02 
  1.494213590924e-03 
  3.095291953995e-02 
  1.220775418474e-03 
  9.473372460244e-04 
  2.615022838180e-02 
  3.363487695080e-02 
  4.111952551980e-02 
  3.631325602063e-02 
  4.379790458963e-02 
  4.647628365946e-02 
  4.145852543301e-02 
  3.328345103026e-02 
  2.510837662752e-02 
  3.707728286453e-02 
  2.890220846179e-02 
  3.269604029606e-02 
  5.486206747231e-02 
  5.076793094191e-02 
  4.667379441151e-02 
  4.846074862102e-02 
  4.436661209062e-02 
  4.205942976973e-02 
  6.050801113522e-02 
  4.850941232783e-02 
  3.651081352044e-02 
  5.962743880980e-02 
  4.762884000241e-02 
  5.874686648438e-02 
  3.430479582375e-02 
  4.127583977277e-02 
  4.824688372179e-02 
  3.825760002232e-02 
  4.522864397134e-02 
  4.221040422089e-02 
  4.905718748275e-02 
  5.306595138657e-02 
  5.707471529040e-02 
  5.006651100605e-02 
  5.407527490987e-02 
  5.107583452935e-02 
  5.004709022811e-02 
  5.410818663803e-02 
  5.816928304795e-02 
  4.941292617001e-02 
  5.347402257993e-02 
  4.877876211191e-02 
  3.395738939622e-03 
  2.804119472708e-02 
  5.268665051453e-02 
  1.914628037871e-02 
  4.379173616617e-02 
  3.489682181780e-02 
  4.589403588616e-02 
  4.673455226109e-02 
  4.757506863602e-02 
  4.698118964443e-02 
  4.782170601936e-02 
  4.806834340269e-02 
  4.761338961259e-02 
  4.679639290439e-02 
  4.597939619618e-02 
  4.904179994760e-02 
  4.822480323940e-02 
  5.047021028261e-02 
  5.503553558375e-02 
  5.143118152402e-02 
  4.782682746430e-02 
  5.171466997686e-02 
  4.811031591714e-02 
  4.839380436998e-02 
  4.663610394004e-02 
  4.758280170566e-02 
  4.852949947128e-02 
  4.509475635676e-02 
  4.604145412238e-02 
  4.355340877348e-02 
  5.495980505508e-02 
  5.231560296827e-02 
  4.967140088146e-02 
  5.638380159964e-02 
  5.373959951283e-02 
  5.780779814421e-02 
  5.097787733249e-02 
  4.893709080889e-02 
  4.689630428528e-02 
  4.319032479991e-02 
  4.114953827631e-02 
  3.540277226733e-02 
  1.185696571248e-03 
  1.803281913515e-03 
  2.420867255781e-03 
  3.554165279193e-02 
  3.615923813420e-02 
  6.989760901262e-02 
  5.390766662498e-02 
  4.860771524302e-02 
  4.330776386106e-02 
  5.141345317772e-02 
  4.611350179576e-02 
  4.891923973046e-02 
  6.148028348238e-02 
  5.804525791965e-02 
  5.461023235693e-02 
  6.068422942168e-02 
  5.724920385896e-02 
  5.988817536099e-02 
  6.063615766766e-02 
  5.380853146601e-02 
  4.698090526437e-02 
  5.794988793110e-02 
  5.112226172946e-02 
  5.526361819455e-02 
  6.093954069312e-02 
  6.084912826743e-02 
  6.075871584175e-02 
  6.423525474757e-02 
  6.414484232189e-02 
  6.753096880203e-02 
  5.822259822336e-02 
  5.624958123666e-02 
  5.427656424995e-02 
  5.116504419007e-02 
  4.919202720336e-02 
  4.410749015677e-02 
  3.982854907109e-02 
  4.863447148243e-02 
  5.744039389377e-02 
  4.216853468248e-02 
  5.097445709382e-02 
  4.450852029386e-02 
  5.908597490288e-02 
  5.909005668712e-02 
  5.909413847136e-02 
  6.403685466114e-02 
  6.404093644538e-02 
  6.898773441940e-02 
  5.371486635906e-02 
  5.139049883611e-02 
  4.906613131316e-02 
  4.900621431322e-02 
  4.668184679026e-02 
  4.429756226737e-02 
  6.191874319892e-02 
  6.079177586657e-02 
  5.966480853422e-02 
  4.497023563894e-02 
  4.384326830659e-02 
  2.802172807896e-02 
  4.129169601849e-02 
  4.570732508046e-02 
  5.012295414244e-02 
  4.777712704270e-02 
  5.219275610467e-02 
  5.426255806690e-02 
  4.953957337245e-02 
  5.141929471585e-02 
  5.329901605925e-02 
  4.932126269179e-02 
  5.120098403519e-02 
  4.910295201113e-02 
  1.505826139055e-02 
  2.429896923833e-02 
  3.353967708612e-02 
  2.043810361501e-02 
  2.967881146279e-02 
  2.581794583947e-02 
  3.338330403061e-02 
  3.863321315549e-02 
  4.388312228037e-02 
  3.716759771530e-02 
  4.241750684018e-02 
  4.095189139999e-02 
  4.104177786536e-02 
  3.366283864076e-02 
  2.628389941615e-02 
  3.712357111575e-02 
  2.974463189115e-02 
  3.320536436614e-02 
  3.334736067109e-02 
  3.680653149631e-02 
  4.026570232154e-02 
  3.872175038969e-02 
  4.218092121492e-02 
  4.409614010830e-02 
  5.478439146775e-02 
  5.450243444885e-02 
  5.422047742996e-02 
  5.252658193863e-02 
  5.224462491974e-02 
  5.026877240952e-02 
  4.123488518017e-02 
  4.246204798449e-02 
  4.368921078881e-02 
  4.547653154467e-02 
  4.670369434899e-02 
  4.971817790916e-02 
  5.492520810676e-02 
  5.262421274830e-02 
  5.032321738984e-02 
  5.182755235822e-02 
  4.952655699976e-02 
  4.872989660967e-02 
  3.339572622683e-02 
  2.414851277860e-02 
  1.490129933037e-02 
  3.055980644668e-02 
  2.131259299846e-02 
  2.772388666654e-02 
  5.705117895341e-02 
  5.354580749333e-02 
  5.004043603325e-02 
  5.758563727472e-02 
  5.408026581464e-02 
  5.812009559604e-02 
  5.586036721049e-02 
  5.636147888658e-02 
  5.686259056267e-02 
  5.252249471317e-02 
  5.302360638926e-02 
  4.918462221585e-02 
  5.903613597933e-02 
  6.157777852868e-02 
  6.411942107804e-02 
  6.011059240566e-02 
  6.265223495501e-02 
  6.118504883199e-02 
  5.765623891962e-02 
  5.680887577502e-02 
  5.596151263042e-02 
  5.810051582739e-02 
  5.725315268279e-02 
  5.854479273516e-02 
  5.428137368200e-02 
  5.985365942906e-02 
  6.542594517612e-02 
  5.429210530247e-02 
  5.986439104953e-02 
  5.430283692293e-02 
  6.556212609158e-02 
  5.991967021375e-02 
  5.427721433592e-02 
  6.120399385847e-02 
  5.556153798064e-02 
  5.684586162537e-02 
  7.455492758185e-02 
  7.070374916583e-02 
  6.685257074981e-02 
  6.520696694152e-02 
  6.135578852550e-02 
  5.585900630120e-02 
  6.533266368923e-02 
  5.961757220205e-02 
  5.390248071487e-02 
  6.604952963768e-02 
  6.033443815050e-02 
  6.676639558613e-02 
  5.542030603147e-02 
  5.664309747920e-02 
  5.786588892693e-02 
  6.485285921618e-02 
  6.607565066391e-02 
  7.428541240089e-02 
  5.814563137541e-02 
  5.859956091628e-02 
  5.905349045715e-02 
  6.124399954957e-02 
  6.169792909044e-02 
  6.434236772373e-02 
  7.690459230493e-02 
  7.586606737874e-02 
  7.482754245254e-02 
  6.766775929410e-02 
  6.662923436791e-02 
  5.843092628327e-02 
  6.249843959002e-04 
  4.337825599384e-02 
  8.613152759179e-02 
  1.008382746266e-03 
  4.376165434421e-02 
  1.391781096632e-03 
  7.602455039586e-02 
  8.003038926295e-02 
  8.403622813004e-02 
  7.684189141854e-02 
  8.084773028563e-02 
  7.765923244121e-02 
  8.433251632560e-02 
  8.005057675659e-02 
  7.576863718758e-02 
  8.057044153855e-02 
  7.628850196954e-02 
  7.680836675150e-02 
  7.738034492179e-02 
  8.105783999248e-02 
  8.473533506318e-02 
  3.973833937795e-02 
  4.341583444865e-02 
  2.096333834122e-03 
  7.542828468680e-02 
  7.693380110332e-02 
  7.843931751985e-02 
  7.146366181359e-02 
  7.296917823012e-02 
  6.749903894039e-02 
  7.497266292699e-02 
  7.959939670078e-02 
  8.422613047457e-02 
  7.573024507176e-02 
  8.035697884555e-02 
  7.648782721654e-02 
  7.616105493444e-02 
  6.756116285879e-02 
  5.896127078313e-02 
  6.840703449376e-02 
  5.980714241811e-02 
  6.065301405308e-02 
  6.387365468995e-02 
  6.403874750311e-02 
  6.420384031626e-02 
  6.225557539606e-02 
  6.242066820922e-02 
  6.063749610217e-02 
  6.522319814375e-02 
  6.648878430523e-02 
  6.775437046671e-02 
  7.172277524331e-02 
  7.298836140479e-02 
  7.822235234288e-02 
 -4.152133213106e-04 
  1.329486530411e-02 
  2.700494392953e-02 
  5.348479887559e-04 
  1.424492661418e-02 
  1.484909298822e-03 
  2.677837021873e-02 
  3.372235303784e-02 
  4.066633585696e-02 
  3.740827708217e-02 
  4.435225990129e-02 
  4.803818394561e-02 
  6.148251339053e-02 
  3.383159305720e-02 
  6.180672723859e-03 
  3.060064713351e-02 
  2.949726800176e-03 
 -2.812191235063e-04 
 -6.587777257784e-04 
  2.374769285839e-03 
  5.408316297457e-03 
  7.077457426721e-03 
  1.011100443834e-02 
  1.481369257922e-02 
  1.254300500334e-04 
 -4.770578293454e-04 
 -1.079545708724e-03 
  1.263709974551e-02 
  1.203461186614e-02 
  2.514876944099e-02 
  5.602634782756e-02 
  2.986035824703e-02 
  3.694368666497e-03 
  4.662297899492e-02 
  2.045698941439e-02 
  3.721961016228e-02 
  2.689340085364e-02 
  3.792039717618e-02 
  4.894739349872e-02 
  1.443159180856e-02 
  2.545858813111e-02 
  1.969782763494e-03 
 -1.246332670935e-03 
  6.836147470651e-03 
  1.491862761224e-02 
  1.194091576510e-02 
  2.002339590669e-02 
  2.512816420114e-02 
  9.499144523790e-04 
  1.003003250180e-03 
  1.056092047981e-03 
  3.981467818456e-02 
  3.986776698236e-02 
  7.867944191675e-02 
  1.147605142291e-03 
  4.368842877994e-02 
  8.622925241760e-02 
  1.088326278875e-03 
  4.362914991653e-02 
  1.029047415458e-03 
  6.899994071795e-02 
  3.830457240426e-02 
  7.609204090561e-03 
  6.398622404579e-02 
  3.329085573210e-02 
  5.897250737363e-02 
  3.546629871313e-04 
  2.554677028034e-02 
  5.073887757355e-02 
  1.102612708027e-03 
  2.629472000124e-02 
  1.850562428923e-03 
  2.212590547309e-03 
  3.374724026836e-02 
  6.528188998942e-02 
  4.005283162521e-02 
  7.158748134626e-02 
  7.789307270310e-02 
  6.464819110228e-02 
  3.475352243413e-02 
  4.858853765984e-03 
  6.494209036038e-02 
  3.504742169223e-02 
  6.523598961848e-02 
  5.428886526604e-02 
  2.802853021523e-02 
  1.768195164425e-03 
  2.796345237863e-02 
  1.703117327820e-03 
  1.638039491216e-03 
  3.069254055859e-03 
  2.648270254599e-02 
  4.989615103611e-02 
  3.393016221143e-02 
  5.734361070156e-02 
  6.479107036700e-02 
  4.889603635778e-02 
  5.158943482701e-02 
  5.428283329624e-02 
  5.692040520523e-02 
  5.961380367446e-02 
  6.494477405268e-02 
  6.092883261223e-02 
  3.300872026009e-02 
  5.088607907946e-03 
  6.262463439345e-02 
  3.470452204131e-02 
  6.432043617467e-02 
  7.595081250941e-02 
  6.823455645129e-02 
  6.051830039318e-02 
  6.760546283527e-02 
  5.988920677716e-02 
  5.926011316113e-02 
  4.815449491510e-02 
  4.436807045893e-02 
  4.058164600276e-02 
  5.131346790061e-02 
  4.752704344444e-02 
  5.447244088612e-02 
  7.338772127521e-04 
  1.888853682729e-03 
  3.043830152705e-03 
  3.183918090949e-02 
  3.299415737946e-02 
  6.294448460622e-02 
  4.833160969453e-03 
  2.270509045341e-03 
 -2.921428787712e-04 
  2.156004826732e-03 
 -4.066470973803e-04 
 -5.211513159893e-04 
  5.703720883723e-02 
  5.729213490011e-02 
  5.754706096299e-02 
  5.032542237746e-02 
  5.058034844034e-02 
  4.361363591770e-02 
  6.015051966485e-02 
  6.359321834265e-02 
  6.703591702046e-02 
  6.408270338730e-02 
  6.752540206510e-02 
  6.801488710975e-02 
  6.689105893375e-02 
  6.311575000465e-02 
  5.934044107554e-02 
  6.388286978156e-02 
  6.010756085246e-02 
  6.087468062937e-02 
  5.822993014830e-02 
  6.285290858032e-02 
  6.747588701235e-02 
  5.843700915374e-02 
  6.305998758576e-02 
  5.864408815918e-02 
  6.101106634715e-02 
  6.028324311830e-02 
  5.955541988945e-02 
  5.414432834618e-02 
  5.341650511733e-02 
  4.727759034521e-02 
  1.933597829742e-02 
  1.420236096598e-02 
  9.068743634537e-03 
  4.683094687940e-02 
  4.169732954796e-02 
  7.432591546139e-02 
  5.696324426851e-02 
  4.850065089464e-02 
  4.003805752077e-02 
  5.054349540691e-02 
  4.208090203304e-02 
  4.412374654531e-02 
  5.712857190573e-02 
  5.725269875071e-02 
  5.737682559569e-02 
  4.809832449298e-02 
  4.822245133796e-02 
  3.906807708022e-02 
  3.295010908707e-02 
  3.837320684542e-02 
  4.379630460377e-02 
  3.674512437986e-02 
  4.216822213821e-02 
  4.054013967266e-02 
  4.439559650457e-02 
  3.835869964520e-02 
  3.232180278584e-02 
  3.643942485641e-02 
  3.040252799704e-02 
  2.848325320824e-02 
  4.323595883522e-02 
  4.349154176019e-02 
  4.374712468516e-02 
  4.557799944946e-02 
  4.583358237443e-02 
  4.792004006369e-02 
  4.357539625264e-02 
  4.348057313783e-02 
  4.338575002303e-02 
  3.824177730605e-02 
  3.814695419124e-02 
  3.290815835946e-02 
  5.509367244680e-02 
  5.164885359334e-02 
  4.820403473988e-02 
  5.573207877051e-02 
  5.228725991705e-02 
  5.637048509422e-02 
  4.387123121484e-02 
  4.576392408575e-02 
  4.765661695665e-02 
  5.013484519509e-02 
  5.202753806600e-02 
  5.639845917535e-02 
  3.257761157439e-02 
  3.009124474859e-02 
  2.760487792280e-02 
  2.357369265392e-02 
  2.108732582812e-02 
  1.456977373345e-02 
  3.269465708141e-02 
  3.673177544273e-02 
  4.076889380406e-02 
  3.037569574220e-02 
  3.441281410353e-02 
  2.805673440300e-02 
  4.054948387319e-02 
  3.685511928747e-02 
  3.316075470174e-02 
  3.435563535271e-02 
  3.066127076699e-02 
  2.816178683223e-02 
  5.592793204930e-02 
  5.201540608338e-02 
  4.810288011746e-02 
  5.354795385534e-02 
  4.963542788943e-02 
  5.116797566139e-02 
  4.643569944962e-02 
  4.461229219989e-02 
  4.278888495015e-02 
  3.619326611113e-02 
  3.436985886139e-02 
  2.595083277263e-02 
  4.694858120411e-02 
  5.272938595811e-02 
  5.851019071210e-02 
  4.515963192812e-02 
  5.094043668211e-02 
  4.337068265213e-02 
  2.525560532324e-02 
  3.041820504910e-02 
  3.558080477496e-02 
  1.299602935820e-02 
  1.815862908406e-02 
  7.364533931696e-04 
  3.594664751348e-02 
  3.035794287199e-02 
  2.476923823049e-02 
  3.976736653008e-02 
  3.417866188859e-02 
  4.358808554669e-02 
  5.947852778602e-02 
  3.149515767200e-02 
  3.511787557988e-03 
  3.020564675307e-02 
  2.222276639056e-03 
  9.327657201254e-04 
  1.264957558774e-02 
  7.552342581057e-03 
  2.455109574372e-03 
  4.129012661624e-02 
  3.619289360955e-02 
  6.993067764473e-02 
  4.492951139225e-02 
  4.728799397800e-02 
  4.964647656374e-02 
  4.101687725548e-02 
  4.337535984122e-02 
  3.710424311871e-02 
  6.295589858158e-02 
  3.209771750986e-02 
  1.239536438142e-03 
  3.687989861175e-02 
  6.021717540037e-03 
  1.080389864193e-02 
  5.009691125185e-02 
  5.263760931373e-02 
  5.517830737561e-02 
  4.980877474305e-02 
  5.234947280493e-02 
  4.952063823425e-02 
  5.518233227320e-02 
  5.307006434111e-02 
  5.095779640901e-02 
  5.199089094776e-02 
  4.987862301566e-02 
  4.879944962231e-02 
  4.643294331144e-02 
  4.797256103961e-02 
  4.951217876777e-02 
  5.045330023528e-02 
  5.199291796344e-02 
  5.447365715911e-02 
  4.881693253930e-02 
  4.801892325012e-02 
  4.722091396095e-02 
  4.957786914696e-02 
  4.877985985778e-02 
  5.033880575461e-02 
  5.556868477221e-02 
  5.299059808453e-02 
  5.041251139685e-02 
  5.772872409037e-02 
  5.515063740269e-02 
  5.988876340853e-02 
  4.773141249821e-02 
  5.078788579613e-02 
  5.384435909405e-02 
  4.273775217928e-02 
  4.579422547720e-02 
  3.774409186036e-02 
  5.502362090845e-02 
  5.677294674713e-02 
  5.852227258580e-02 
  5.286534206720e-02 
  5.461466790587e-02 
  5.070706322594e-02 
  5.075345490848e-02 
  4.956137064265e-02 
  4.836928637682e-02 
  4.837789095835e-02 
  4.718580669252e-02 
  4.600232700823e-02 
  5.678541920898e-02 
  5.392413421982e-02 
  5.106284923066e-02 
  5.107920270005e-02 
  4.821791771089e-02 
  4.537298619111e-02 
  5.742989126127e-02 
  5.859545710938e-02 
  5.976102295749e-02 
  3.227221069545e-02 
  3.343777654356e-02 
  7.114530129632e-03 
  4.785818498376e-02 
  4.605687369489e-02 
  4.425556240602e-02 
  5.221411359719e-02 
  5.041280230832e-02 
  5.657004221062e-02 
  3.558757061026e-02 
  4.969690201342e-02 
  6.380623341658e-02 
  4.645649658984e-02 
  6.056582799300e-02 
  5.732542256941e-02 
  5.251809338262e-03 
  2.493982586567e-03 
 -2.638441651280e-04 
  1.007814471412e-02 
  7.320317962422e-03 
  1.490448008997e-02 
  4.788746566208e-03 
  2.101044434156e-03 
 -5.866576978958e-04 
  2.327632881782e-03 
 -3.600692502702e-04 
 -1.334808026446e-04 
  1.510498396207e-02 
  7.824014471662e-03 
  5.430449812562e-04 
  2.149102535653e-02 
  1.421005586613e-02 
  2.787706675100e-02 
  4.387077833248e-02 
  3.611234295934e-02 
  2.835390758620e-02 
  2.184342240274e-02 
  1.408498702960e-02 
 -1.839335270053e-04 
  4.512090591655e-02 
  5.114588987875e-02 
  5.717087384094e-02 
  4.484673504054e-02 
  5.087171900274e-02 
  4.457256416453e-02 
  4.461306684631e-02 
  4.477646041873e-02 
  4.493985399115e-02 
  3.656233688511e-02 
  3.672573045753e-02 
  2.851160692391e-02 
  4.600123723842e-04 
  7.822073853560e-03 
  1.518413533474e-02 
  9.655873916061e-05 
  7.458620220336e-03 
 -2.668948940630e-04 
  3.251527897486e-02 
  2.371310124674e-02 
  1.491092351862e-02 
  3.032723578085e-02 
  2.152505805273e-02 
  2.813919258683e-02 
 -2.535060195285e-04 
  1.382278064024e-04 
  5.299616323332e-04 
  2.188640184621e-02 
  2.227813567214e-02 
  4.402630971194e-02 
  6.779492503519e-02 
  3.642290824162e-02 
  5.050891448045e-03 
  6.377349887416e-02 
  3.240148208058e-02 
  5.975207271312e-02 
  5.640454973455e-02 
  4.963094579928e-02 
  4.285734186402e-02 
  5.388442552816e-02 
  4.711082159289e-02 
  5.136430132177e-02 
  2.610672318373e-02 
  1.424652950517e-02 
  2.386335826612e-03 
  2.908309828870e-02 
  1.722290461014e-02 
  3.205947339367e-02 
  6.799299079342e-02 
  3.424322605355e-02 
  4.934613136749e-04 
  3.500120723853e-02 
  1.251442498654e-03 
  2.009423683634e-03 
  6.613293501720e-02 
  3.288629610305e-02 
 -3.603428111007e-04 
  3.361338708389e-02 
  3.667481697436e-04 
  1.093839150588e-03 
  6.032639385837e-02 
  3.204827262865e-02 
  3.770151398921e-03 
  5.575095278521e-02 
  2.747283155549e-02 
  5.117551171205e-02 
  4.409079187800e-02 
  2.214582329599e-02 
  2.008547139894e-04 
  5.451712344654e-02 
  3.257215486453e-02 
  6.494345501508e-02 
  4.465245198412e-02 
  5.176789931708e-02 
  5.888334665004e-02 
  5.011663105405e-02 
  5.723207838702e-02 
  5.558081012399e-02 
  8.103177625592e-02 
  4.097004461588e-02 
  9.083129758402e-04 
  4.150278487772e-02 
  1.441053237682e-03 
  1.973793499524e-03 
  5.679520913547e-02 
  6.100360005421e-02 
  6.521199097295e-02 
  6.155237274249e-02 
  6.576076366123e-02 
  6.630953634950e-02 
  6.462820522549e-02 
  6.097604697599e-02 
  5.732388872648e-02 
  5.471256828568e-02 
  5.106041003618e-02 
  4.479693134588e-02 
  5.746295783378e-02 
  5.776763520884e-02 
  5.807231258390e-02 
  5.735260339896e-02 
  5.765728077402e-02 
  5.724224896414e-02 
  5.865899734791e-02 
  5.510595646181e-02 
  5.155291557570e-02 
  5.813444760768e-02 
  5.458140672158e-02 
  5.760989786746e-02 
  5.834596547441e-02 
  5.645700224294e-02 
  5.456803901147e-02 
  6.210140464262e-02 
  6.021244141115e-02 
  6.585684381082e-02 
  6.658557226857e-02 
  7.098247216683e-02 
  7.537937206509e-02 
  6.228531967956e-02 
  6.668221957783e-02 
  5.798506709056e-02 
  6.627393823837e-02 
  6.599863019024e-02 
  6.572332214212e-02 
  7.243875749322e-02 
  7.216344944510e-02 
  7.860357674808e-02 
  5.672265347840e-02 
  6.123969223321e-02 
  6.575673098803e-02 
  5.570072611886e-02 
  6.021776487368e-02 
  5.467879875933e-02 
  7.909041863169e-02 
  8.098253724055e-02 
  8.287465584941e-02 
  7.765286287170e-02 
  7.954498148056e-02 
  7.621530711171e-02 
  7.899616506285e-02 
  7.294303784415e-02 
  6.688991062546e-02 
  4.104615299296e-02 
  3.499302577427e-02 
  3.096140923074e-03 
  5.928838286647e-02 
  6.725419431679e-02 
  7.522000576711e-02 
  6.772064352105e-02 
  7.568645497136e-02 
  7.615290417562e-02 
  7.521570459071e-02 
  6.690775714814e-02 
  5.859980970556e-02 
  6.638589745339e-02 
  5.807795001082e-02 
  5.755609031607e-02 
  6.610130019539e-02 
  6.262901797636e-02 
  5.915673575733e-02 
  6.383968183923e-02 
  6.036739962021e-02 
  6.157806348308e-02 
  5.780918750659e-02 
  6.233430952378e-02 
  6.685943154097e-02 
  5.793514128564e-02 
  6.246026330283e-02 
  5.806109506469e-02 
  7.580189811354e-02 
  7.583001482477e-02 
  7.585813153600e-02 
  7.942095980772e-02 
  7.944907651895e-02 
  8.304002150190e-02 
  7.879485161431e-02 
  7.735152077635e-02 
  7.590818993839e-02 
  7.247172067267e-02 
  7.102838983471e-02 
  6.614858973103e-02 
  3.691140234726e-03 
  4.323849871403e-02 
  8.278585719334e-02 
  4.178702603834e-02 
  8.133438451764e-02 
  7.988291184195e-02 