# vtk DataFile Version 2
NuDG++ 2D simulation
ASCII
DATASET UNSTRUCTURED_GRID

POINTS 2244 double
 -1.656250060000e-01  -2.000000030000e-01  0.0
 -1.828125045000e-01  -1.772221997500e-01  0.0
 -2.000000030000e-01  -1.544443965000e-01  0.0
 -1.828125045000e-01  -2.000000030000e-01  0.0
 -2.000000030000e-01  -1.772221997500e-01  0.0
 -2.000000030000e-01  -2.000000030000e-01  0.0
 -6.428571790000e-02  -1.700000018000e-01  0.0
 -8.058035746000e-02  -1.850000024000e-01  0.0
 -9.687499702000e-02  -2.000000030000e-01  0.0
 -6.339285895000e-02  -1.850000024000e-01  0.0
 -7.968749851000e-02  -2.000000030000e-01  0.0
 -6.250000000000e-02  -2.000000030000e-01  0.0
 -2.000000030000e-01  -1.544443965000e-01  0.0
 -1.750000045000e-01  -1.379364989500e-01  0.0
 -1.500000060000e-01  -1.214286014000e-01  0.0
 -2.000000030000e-01  -1.316666491500e-01  0.0
 -1.750000045000e-01  -1.151587516000e-01  0.0
 -2.000000030000e-01  -1.088889018000e-01  0.0
 -1.500000060000e-01  -1.214286014000e-01  0.0
 -1.750000045000e-01  -1.379364989500e-01  0.0
 -2.000000030000e-01  -1.544443965000e-01  0.0
 -1.500000060000e-01  -1.457143016000e-01  0.0
 -1.750000045000e-01  -1.622221991500e-01  0.0
 -1.500000060000e-01  -1.700000018000e-01  0.0
 -1.500000060000e-01  -7.285714149000e-02  0.0
 -1.750000045000e-01  -9.087302164500e-02  0.0
 -2.000000030000e-01  -1.088889018000e-01  0.0
 -1.500000060000e-01  -9.714287144500e-02  0.0
 -1.750000045000e-01  -1.151587516000e-01  0.0
 -1.500000060000e-01  -1.214286014000e-01  0.0
  1.832975030000e+00  -4.625000060000e-02  0.0
  1.853987515000e+00  -1.231250018000e-01  0.0
  1.875000000000e+00  -2.000000030000e-01  0.0
  1.916487515000e+00  -7.187499851000e-02  0.0
  1.937500000000e+00  -1.487499997100e-01  0.0
  2.000000000000e+00  -9.749999642000e-02  0.0
 -1.500000060000e-01  -1.700000018000e-01  0.0
 -1.360000037000e-01  -1.525000036000e-01  0.0
 -1.220000014000e-01  -1.350000054000e-01  0.0
 -1.500000060000e-01  -1.457143016000e-01  0.0
 -1.360000037000e-01  -1.282143034000e-01  0.0
 -1.500000060000e-01  -1.214286014000e-01  0.0
  2.849999964000e-01  -2.333333530000e-02  0.0
  2.837499976000e-01  -8.166666795000e-02  0.0
  2.824999988000e-01  -1.400000006000e-01  0.0
  3.174999952000e-01  -4.666666780000e-02  0.0
  3.162499964000e-01  -1.050000004500e-01  0.0
  3.499999940000e-01  -7.000000030000e-02  0.0
 -1.071429029000e-01  -1.700000018000e-01  0.0
 -8.571431040000e-02  -1.700000018000e-01  0.0
 -6.428571790000e-02  -1.700000018000e-01  0.0
 -9.857145324000e-02  -1.525000036000e-01  0.0
 -7.714286074000e-02  -1.525000036000e-01  0.0
 -9.000000358000e-02  -1.350000054000e-01  0.0
 -1.312499940000e-01  -2.000000030000e-01  0.0
 -1.191964484500e-01  -1.850000024000e-01  0.0
 -1.071429029000e-01  -1.700000018000e-01  0.0
 -1.406250000000e-01  -1.850000024000e-01  0.0
 -1.285714544500e-01  -1.700000018000e-01  0.0
 -1.500000060000e-01  -1.700000018000e-01  0.0
 -1.220000014000e-01  -1.350000054000e-01  0.0
 -1.060000024900e-01  -1.350000054000e-01  0.0
 -9.000000358000e-02  -1.350000054000e-01  0.0
 -1.185000017500e-01  -1.175000034500e-01  0.0
 -1.025000028400e-01  -1.175000034500e-01  0.0
 -1.150000021000e-01  -1.000000015000e-01  0.0
 -9.000000358000e-02  -1.350000054000e-01  0.0
 -1.060000024900e-01  -1.350000054000e-01  0.0
 -1.220000014000e-01  -1.350000054000e-01  0.0
 -9.857145324000e-02  -1.525000036000e-01  0.0
 -1.145714521500e-01  -1.525000036000e-01  0.0
 -1.071429029000e-01  -1.700000018000e-01  0.0
 -7.778175920000e-02  -9.192386270000e-02  0.0
 -9.639088065000e-02  -9.596193210000e-02  0.0
 -1.150000021000e-01  -1.000000015000e-01  0.0
 -8.389088139000e-02  -1.134619340500e-01  0.0
 -1.025000028400e-01  -1.175000034500e-01  0.0
 -9.000000358000e-02  -1.350000054000e-01  0.0
 -1.220000014000e-01  -1.350000054000e-01  0.0
 -1.185000017500e-01  -1.175000034500e-01  0.0
 -1.150000021000e-01  -1.000000015000e-01  0.0
 -1.360000037000e-01  -1.282143034000e-01  0.0
 -1.325000040500e-01  -1.107143014500e-01  0.0
 -1.500000060000e-01  -1.214286014000e-01  0.0
 -7.778175920000e-02  -9.192386270000e-02  0.0
 -8.389088139000e-02  -1.134619340500e-01  0.0
 -9.000000358000e-02  -1.350000054000e-01  0.0
 -6.639088876500e-02  -1.022535823500e-01  0.0
 -7.250001095500e-02  -1.237916537000e-01  0.0
 -5.500001833000e-02  -1.125833020000e-01  0.0
 -1.071429029000e-01  -1.700000018000e-01  0.0
 -1.145714521500e-01  -1.525000036000e-01  0.0
 -1.220000014000e-01  -1.350000054000e-01  0.0
 -1.285714544500e-01  -1.700000018000e-01  0.0
 -1.360000037000e-01  -1.525000036000e-01  0.0
 -1.500000060000e-01  -1.700000018000e-01  0.0
  6.250000093000e-03  -2.000000030000e-01  0.0
  4.062500153650e-02  -2.000000030000e-01  0.0
  7.500000298000e-02  -2.000000030000e-01  0.0
  1.383928512150e-02  -1.850000024000e-01  0.0
  4.821428656500e-02  -1.850000024000e-01  0.0
  2.142857015000e-02  -1.700000018000e-01  0.0
 -1.500000060000e-01  -7.285714149000e-02  0.0
 -1.500000060000e-01  -9.714287144500e-02  0.0
 -1.500000060000e-01  -1.214286014000e-01  0.0
 -1.325000040500e-01  -8.642857149500e-02  0.0
 -1.325000040500e-01  -1.107143014500e-01  0.0
 -1.150000021000e-01  -1.000000015000e-01  0.0
 -2.000000030000e-01  -6.333333254000e-02  0.0
 -1.750000045000e-01  -6.809523701500e-02  0.0
 -1.500000060000e-01  -7.285714149000e-02  0.0
 -1.750000045000e-01  -4.380952660000e-02  0.0
 -1.500000060000e-01  -4.857143107500e-02  0.0
 -1.500000060000e-01  -2.428572066000e-02  0.0
 -2.000000030000e-01  -6.333333254000e-02  0.0
 -2.000000030000e-01  -8.611111717000e-02  0.0
 -2.000000030000e-01  -1.088889018000e-01  0.0
 -1.750000045000e-01  -6.809523701500e-02  0.0
 -1.750000045000e-01  -9.087302164500e-02  0.0
 -1.500000060000e-01  -7.285714149000e-02  0.0
 -2.000000030000e-01  -6.333333254000e-02  0.0
 -1.750000045000e-01  -4.380952660000e-02  0.0
 -1.500000060000e-01  -2.428572066000e-02  0.0
 -2.000000030000e-01  -4.055555630500e-02  0.0
 -1.750000045000e-01  -2.103175036500e-02  0.0
 -2.000000030000e-01  -1.777778007000e-02  0.0
 -1.500000060000e-01  -2.428572066000e-02  0.0
 -1.500000060000e-01  -4.857143107500e-02  0.0
 -1.500000060000e-01  -7.285714149000e-02  0.0
 -1.281259023000e-01  -2.896608505500e-02  0.0
 -1.281259023000e-01  -5.325179547000e-02  0.0
 -1.062517986000e-01  -3.364644945000e-02  0.0
 -1.099999994000e-01   1.996667010000e-08  0.0
 -1.300000027000e-01  -1.214285034666e-02  0.0
 -1.500000060000e-01  -2.428572066000e-02  0.0
 -1.081258990000e-01  -1.682321474166e-02  0.0
 -1.281259023000e-01  -2.896608505500e-02  0.0
 -1.062517986000e-01  -3.364644945000e-02  0.0
 -1.500000060000e-01  -2.428572066000e-02  0.0
 -1.500000060000e-01   0.000000000000e+00  0.0
 -1.500000060000e-01   2.428572066000e-02  0.0
 -1.750000045000e-01  -2.103175036500e-02  0.0
 -1.750000045000e-01   3.253970295000e-03  0.0
 -2.000000030000e-01  -1.777778007000e-02  0.0
 -1.500000060000e-01  -7.285714149000e-02  0.0
 -1.226314045700e-01  -6.892856210000e-02  0.0
 -9.526280314000e-02  -6.499998271000e-02  0.0
 -1.281259023000e-01  -5.325179547000e-02  0.0
 -1.007573008700e-01  -4.932321608000e-02  0.0
 -1.062517986000e-01  -3.364644945000e-02  0.0
  3.499999940000e-01   1.400000006000e-01  0.0
  4.021931737500e-01   1.224999986500e-01  0.0
  4.543863535000e-01   1.049999967000e-01  0.0
  4.187500029500e-01   1.749999970000e-01  0.0
  4.709431827000e-01   1.574999950500e-01  0.0
  4.875000119000e-01   2.099999934000e-01  0.0
 -7.101409137000e-02  -4.349999130000e-02  0.0
 -8.313844725500e-02  -5.424998700500e-02  0.0
 -9.526280314000e-02  -6.499998271000e-02  0.0
 -6.449843011500e-02  -5.250913650000e-02  0.0
 -7.662278600000e-02  -6.325913220500e-02  0.0
 -5.798276886000e-02  -6.151828170000e-02  0.0
 -9.526280314000e-02  -6.499998271000e-02  0.0
 -1.226314045700e-01  -6.892856210000e-02  0.0
 -1.500000060000e-01  -7.285714149000e-02  0.0
 -1.051314026200e-01  -8.249999210500e-02  0.0
 -1.325000040500e-01  -8.642857149500e-02  0.0
 -1.150000021000e-01  -1.000000015000e-01  0.0
 -6.181925908000e-02  -1.656441018000e-02  0.0
 -7.051259093000e-02  -1.954082492500e-02  0.0
 -7.920592278000e-02  -2.251723967000e-02  0.0
 -5.862244405000e-02  -2.428220026000e-02  0.0
 -6.731577590000e-02  -2.725861500500e-02  0.0
 -5.542562902000e-02  -3.199999034000e-02  0.0
 -7.920592278000e-02  -2.251723967000e-02  0.0
 -9.272886069000e-02  -2.808184456000e-02  0.0
 -1.062517986000e-01  -3.364644945000e-02  0.0
 -7.511000707500e-02  -3.300861548500e-02  0.0
 -8.863294498500e-02  -3.857322037500e-02  0.0
 -7.101409137000e-02  -4.349999130000e-02  0.0
 -7.101409137000e-02  -4.349999130000e-02  0.0
 -6.321986019500e-02  -3.774999082000e-02  0.0
 -5.542562902000e-02  -3.199999034000e-02  0.0
 -7.511000707500e-02  -3.300861548500e-02  0.0
 -6.731577590000e-02  -2.725861500500e-02  0.0
 -7.920592278000e-02  -2.251723967000e-02  0.0
 -7.920592278000e-02  -2.251723967000e-02  0.0
 -9.460296109000e-02  -1.125860985166e-02  0.0
 -1.099999994000e-01   1.996667010000e-08  0.0
 -9.272886069000e-02  -2.808184456000e-02  0.0
 -1.081258990000e-01  -1.682321474166e-02  0.0
 -1.062517986000e-01  -3.364644945000e-02  0.0
 -7.778175920000e-02  -9.192386270000e-02  0.0
 -6.788226403000e-02  -7.672107220000e-02  0.0
 -5.798276886000e-02  -6.151828170000e-02  0.0
 -8.652228117000e-02  -7.846192270500e-02  0.0
 -7.662278600000e-02  -6.325913220500e-02  0.0
 -9.526280314000e-02  -6.499998271000e-02  0.0
 -7.101409137000e-02  -4.349999130000e-02  0.0
 -8.863294498500e-02  -3.857322037500e-02  0.0
 -1.062517986000e-01  -3.364644945000e-02  0.0
 -8.313844725500e-02  -5.424998700500e-02  0.0
 -1.007573008700e-01  -4.932321608000e-02  0.0
 -9.526280314000e-02  -6.499998271000e-02  0.0
 -7.778175920000e-02  -9.192386270000e-02  0.0
 -8.652228117000e-02  -7.846192270500e-02  0.0
 -9.526280314000e-02  -6.499998271000e-02  0.0
 -9.639088065000e-02  -9.596193210000e-02  0.0
 -1.051314026200e-01  -8.249999210500e-02  0.0
 -1.150000021000e-01  -1.000000015000e-01  0.0
[...]
POINT_DATA 2244
SCALARS field1 double 1
LOOKUP_TABLE default
  3.054977715733e-03 
  1.429169378010e-01 
  2.827788978863e-01 
  1.289654523305e-03 
  1.411516146086e-01 
 -4.756686691236e-04 
  3.927609171228e-01 
  1.947616471476e-01 
 -3.237622827522e-03 
  1.975681335651e-01 
 -4.311364100822e-04 
  2.375350007357e-03 
  2.798087421920e-01 
  3.620848415033e-01 
  4.443609408146e-01 
  3.860016980658e-01 
  4.682777973771e-01 
  4.921946539396e-01 
  4.451311381352e-01 
  3.624064936517e-01 
  2.796818491682e-01 
  3.329190576403e-01 
  2.501944131568e-01 
  2.207069771453e-01 
  6.113626793249e-01 
  5.520408408712e-01 
  4.927190024175e-01 
  5.306372098751e-01 
  4.713153714214e-01 
  4.499117404253e-01 
 -2.598185319637e+00 
 -5.853384266465e+00 
 -9.108583213293e+00 
 -6.142952428589e+00 
 -9.398151375418e+00 
 -9.687719537542e+00 
  2.215653418203e-01 
  3.188243776471e-01 
  4.160834134739e-01 
  3.337361161756e-01 
  4.309951520024e-01 
  4.459068905309e-01 
  5.787033654383e-01 
  5.563701603139e-01 
  5.340369551896e-01 
  5.844780139878e-01 
  5.621448088634e-01 
  5.902526625373e-01 
  2.928293897293e-01 
  3.436009794529e-01 
  3.943725691766e-01 
  3.805373549286e-01 
  4.313089446523e-01 
  4.682453201280e-01 
 -9.956368547946e-04 
  1.463953191672e-01 
  2.937862751891e-01 
  1.067341569627e-01 
  2.541251129846e-01 
  2.144639507801e-01 
  4.111332744898e-01 
  4.390979222677e-01 
  4.670625700455e-01 
  4.888249931830e-01 
  5.167896409608e-01 
  5.665167118761e-01 
  4.644127834559e-01 
  4.383931766624e-01 
  4.123735698688e-01 
  3.786068639387e-01 
  3.525872571452e-01 
  2.928009444216e-01 
  6.300929782248e-01 
  5.987298392532e-01 
  5.673667002815e-01 
  5.508121567685e-01 
  5.194490177969e-01 
  4.715313353122e-01 
  4.142090515955e-01 
  4.893538524391e-01 
  5.644986532827e-01 
  4.302962014471e-01 
  5.054410022907e-01 
  4.463833512987e-01 
  6.303349985423e-01 
  5.499816765114e-01 
  4.696283544805e-01 
  6.324057408582e-01 
  5.520524188273e-01 
  6.344764831741e-01 
  2.921044842417e-01 
  3.542108452531e-01 
  4.163172062645e-01 
  2.558341766535e-01 
  3.179405376649e-01 
  2.195638690652e-01 
  1.272585512217e-03 
  4.446193434016e-03 
  7.619801355815e-03 
  2.852297418603e-01 
  2.884033497821e-01 
  5.691868982084e-01 
  6.110138161660e-01 
  5.290264632808e-01 
  4.470391103956e-01 
  5.871684767928e-01 
  5.051811239076e-01 
  5.633231374195e-01 
  6.345384732288e-01 
  6.208648088206e-01 
  6.071911444125e-01 
  6.526869460100e-01 
  6.390132816018e-01 
  6.708354187912e-01 
  6.328697975653e-01 
  5.627196020688e-01 
  4.925694065722e-01 
  6.204695381132e-01 
  5.503193426167e-01 
  6.080692786612e-01 
  6.363668810246e-01 
  6.538155014692e-01 
  6.712641219139e-01 
  6.711238654508e-01 
  6.885724858955e-01 
  7.058808498771e-01 
  6.712174969611e-01 
  6.421828981546e-01 
  6.131482993480e-01 
  6.313349580422e-01 
  6.023003592356e-01 
  5.914524191232e-01 
  5.614907569466e-01 
  6.165583509986e-01 
  6.716259450507e-01 
  5.719286517238e-01 
  6.269962457759e-01 
  5.823665465011e-01 
  6.648024007896e-01 
  6.736895494647e-01 
  6.825766981398e-01 
  6.858704677793e-01 
  6.947576164543e-01 
  7.069385347689e-01 
  6.120995888255e-01 
  5.993271089936e-01 
  5.865546291617e-01 
  6.005147625167e-01 
  5.877422826848e-01 
  5.889299362079e-01 
  5.003817360085e-01 
  5.487012672268e-01 
  5.970207984450e-01 
  2.502163685549e-01 
  2.985358997732e-01 
  5.100110132401e-05 
  5.500920486852e-01 
  5.719174360894e-01 
  5.937428234936e-01 
  6.110831844410e-01 
  6.329085718452e-01 
  6.720743201969e-01 
  5.904769112500e-01 
  6.012136273901e-01 
  6.119503435302e-01 
  5.800695638611e-01 
  5.908062800012e-01 
  5.696622164721e-01 
  2.194683680837e-01 
  3.249902930922e-01 
  4.305122181008e-01 
  2.930403797430e-01 
  3.985623047516e-01 
  3.666123914024e-01 
  4.107359054233e-01 
  4.945426546963e-01 
  5.783494039694e-01 
  4.805291412820e-01 
  5.643358905551e-01 
  5.503223771408e-01 
  5.553980457469e-01 
  4.666674147203e-01 
  3.779367836936e-01 
  4.892774005825e-01 
  4.005467695559e-01 
  4.231567554181e-01 
  4.104257057868e-01 
  4.829661521595e-01 
  5.555065985322e-01 
  4.960433500987e-01 
  5.685837964713e-01 
  5.816609944105e-01 
  6.291940319472e-01 
  6.535479261231e-01 
  6.779018202991e-01 
  6.106974839494e-01 
  6.350513781254e-01 
  5.922009359516e-01 
  5.536809723618e-01 
  5.687947483172e-01 
  5.839085242726e-01 
  5.757125090770e-01 
  5.908262850324e-01 
  5.977440457922e-01 
  6.229478374622e-01 
  6.057500195424e-01 
  5.885522016227e-01 
  5.953374429754e-01 
  5.781396250556e-01 
  5.677270484886e-01 
  4.241975853401e-01 
  3.274774585781e-01 
  2.307573318162e-01 
  4.111930245841e-01 
  3.144728978221e-01 
  3.981884638281e-01 
  6.340805314447e-01 
  5.513724182003e-01 
  4.686643049558e-01 
  5.146921799201e-01 
  4.319840666756e-01 
  3.953038283954e-01 
 -4.066964500849e+00 
 -3.949871733598e+00 
 -3.832778966348e+00 
 -5.352979688171e+00 
 -5.235886920920e+00 
 -6.638994875492e+00 
  6.496617258883e-01 
  5.762915829678e-01 
  5.029214400473e-01 
  6.780940619886e-01 
  6.047239190681e-01 
  7.065263980890e-01 
  6.465182728199e-01 
  6.392209509023e-01 
  6.319236289848e-01 
  5.214287927830e-01 
  5.141314708654e-01 
  3.963393127460e-01 
  6.252569418263e-01 
  7.089023777783e-01 
  7.925478137302e-01 
  6.505120528951e-01 
  7.341574888471e-01 
  6.757671639639e-01 
  7.967902568633e-01 
  7.120553622312e-01 
  6.273204675990e-01 
  7.207258312631e-01 
  6.359909366309e-01 
  6.446614056628e-01 
  9.041652040087e-01 
  8.517611887754e-01 
  7.993571735420e-01 
  7.711422362525e-01 
  7.187382210192e-01 
  6.381192684963e-01 
  8.181738769533e-01 
  7.468325727840e-01 
  6.754912686146e-01 
  8.133783220580e-01 
  7.420370178886e-01 
  8.085827671626e-01 
  6.343658024097e-01 
  6.451510778436e-01 
  6.559363532774e-01 
  7.718436331147e-01 
  7.826289085486e-01 
  9.093214638197e-01 
  6.494370403868e-01 
  5.240438621280e-01 
  3.986506838692e-01 
  5.760438080161e-01 
  4.506506297573e-01 
  5.026505756453e-01 
  9.727719195237e-01 
  9.429884377939e-01 
  9.132049560642e-01 
  8.157184155018e-01 
  7.859349337721e-01 
  6.586649114800e-01 
 -2.178676163206e-03 
  4.068220164558e-01 
  8.158227090748e-01 
 -8.974399099240e-03 
  4.000262935197e-01 
 -1.577012203528e-02 
  9.343032992815e-01 
  8.991427176415e-01 
  8.639821360014e-01 
  9.173982767695e-01 
  8.822376951295e-01 
  9.004932542575e-01 
  8.588709830050e-01 
  8.960876416017e-01 
  9.333043001984e-01 
  9.046886384963e-01 
  9.419052970929e-01 
  9.505062939875e-01 
  8.959751296134e-01 
  8.724364344116e-01 
  8.488977392098e-01 
  4.551581326173e-01 
  4.316194374155e-01 
  1.434113562121e-02 
  9.124485721640e-01 
  9.088819327259e-01 
  9.053152932877e-01 
  8.611018622989e-01 
  8.575352228608e-01 
  8.097551524338e-01 
  9.137992784130e-01 
  8.726705514742e-01 
  8.315418245354e-01 
  9.368032973512e-01 
  8.956745704124e-01 
  9.598073162893e-01 
  9.757933833062e-01 
  8.171107620146e-01 
  6.584281407230e-01 
  8.426036788796e-01 
  6.839210575880e-01 
  7.094139744530e-01 
  5.043867312646e-01 
  5.293722745439e-01 
  5.543578178232e-01 
  6.063850763561e-01 
  6.313706196354e-01 
  7.083834214475e-01 
  8.136861398154e-01 
  8.164408718994e-01 
  8.191956039834e-01 
  8.563324749656e-01 
  8.590872070496e-01 
  8.989788101158e-01 
 -9.435532061459e-04 
  1.913821626336e-01 
  3.837078784734e-01 
  9.738185176470e-03 
  2.020639010162e-01 
  2.041992355909e-02 
  3.767888009782e-01 
  4.622961170458e-01 
  5.478034331135e-01 
  4.895426640885e-01 
  5.750499801561e-01 
  6.022965271988e-01 
  5.150010485358e-01 
  2.585912741355e-01 
  2.181499735171e-03 
  2.614492742670e-01 
  5.039499866680e-03 
  7.897499998189e-03 
 -1.857171274770e-02 
  3.353594220245e-02 
  8.564359715261e-02 
  9.899590154397e-02 
  1.511035564941e-01 
  2.165635158356e-01 
  9.985205316553e-03 
 -3.654309075658e-03 
 -1.729382346787e-02 
  1.852655241542e-01 
  1.716260097620e-01 
  3.605458429919e-01 
  3.416085957496e-01 
  1.716923331420e-01 
  1.776070534379e-03 
  3.082720764722e-01 
  1.383558138646e-01 
  2.749355571949e-01 
  3.794409756864e-01 
  4.991089254162e-01 
  6.187768751461e-01 
  2.036370136804e-01 
  3.233049634102e-01 
  2.783305167438e-02 
 -2.508215047258e-02 
  9.196069645059e-02 
  2.090035433738e-01 
  1.661467757804e-01 
  2.831896227035e-01 
  3.573757020333e-01 
  8.293938431719e-03 
  9.539347382209e-03 
  1.078475633270e-02 
  4.533789694404e-01 
  4.546243783909e-01 
  8.984640004490e-01 
  1.438925352774e-02 
  4.312109655775e-01 
  8.480326776273e-01 
  7.377600528256e-03 
  4.241993125780e-01 
  3.659475287720e-04 
  5.441215149843e-01 
  2.707182130442e-01 
 -2.685088896006e-03 
  4.940904479796e-01 
  2.206871460394e-01 
  4.440593809748e-01 
  7.189155976228e-03 
  3.304228916346e-01 
  6.536566272930e-01 
  2.011860108532e-02 
  3.433523367437e-01 
  3.304804619442e-02 
  2.382741070156e-02 
  4.176842273794e-01 
  8.115410440572e-01 
  4.555027477451e-01 
  8.493595644229e-01 
  8.871780847886e-01 
  5.046989100869e-01 
  2.569056269371e-01 
  9.112343787322e-03 
  5.285654626062e-01 
  2.807721794564e-01 
  5.524320151255e-01 
  2.987988686162e-01 
  1.500125574928e-01 
  1.226246369345e-03 
  1.515252050794e-01 
  2.738893955934e-03 
  4.251541542524e-03 
  4.700405751424e-02 
  3.452381091540e-01 
  6.434721607938e-01 
  4.280746175353e-01 
  7.263086691751e-01 
  8.091451775563e-01 
  6.163440910661e-01 
  6.465065528979e-01 
  6.766690147296e-01 
  7.145261816189e-01 
  7.446886434506e-01 
  8.127082721717e-01 
  4.040660099662e-01 
  2.062932956431e-01 
  8.520581319988e-03 
  4.491053463861e-01 
  2.513326320630e-01 
  4.941446828060e-01 
  9.748581672132e-01 
  8.398767941339e-01 
  7.048954210547e-01 
  8.760202594109e-01 
  7.410388863317e-01 
  7.771823516086e-01 
  6.076385518723e-01 
  5.768101684388e-01 
  5.459817850053e-01 
  6.440106142495e-01 
  6.131822308160e-01 
  6.803826766267e-01 
  2.193473950985e-03 
  5.565447981198e-03 
  8.937422011411e-03 
  2.050258033450e-01 
  2.083977773752e-01 
  4.078581327391e-01 
  7.467691400652e-02 
  3.309198073887e-02 
 -8.492952528789e-03 
  3.450684739047e-02 
 -7.078085877183e-03 
 -5.663219225578e-03 
  6.424018704827e-01 
  6.614719799225e-01 
  6.805420893623e-01 
  6.247112330149e-01 
  6.437813424546e-01 
  6.070205955470e-01 
  6.832195929856e-01 
  6.934168576188e-01 
  7.036141222519e-01 
  6.955617359821e-01 
  7.057590006152e-01 
  7.079038789786e-01 
  7.028725778310e-01 
  6.691903379906e-01 
  6.355080981501e-01 
  6.679333808555e-01 
  6.342511410150e-01 
  6.329941838800e-01 
  6.366201080554e-01 
  6.691046471544e-01 
  7.015891862534e-01 
  6.576840868312e-01 
  6.901686259303e-01 
  6.787480656071e-01 
  6.321227735988e-01 
  6.344022644631e-01 
  6.366817553275e-01 
  5.628749401987e-01 
  5.651544310631e-01 
  4.936271067987e-01 
 -6.705611503477e+00 
 -3.690611260237e+00 
 -6.756110169969e-01 
 -1.013765104790e+01 
 -7.122650804656e+00 
 -1.356969059232e+01 
  6.839557391376e-01 
  6.241266857478e-01 
  5.642976323579e-01 
  6.410404942802e-01 
  5.812114408903e-01 
  5.981252494227e-01 
  6.843012301507e-01 
  6.765389930539e-01 
  6.687767559571e-01 
  6.268235654365e-01 
  6.190613283398e-01 
  5.693459007224e-01 
  4.256719071915e-01 
  5.123187042077e-01 
  5.989655012239e-01 
  4.925429685662e-01 
  5.791897655824e-01 
  5.594140299409e-01 
  5.714589077101e-01 
  5.024794787020e-01 
  4.335000496938e-01 
  4.809642299896e-01 
  4.119848009815e-01 
  3.904695522691e-01 
  5.979678973769e-01 
  5.774013221684e-01 
  5.568347469599e-01 
  6.033733722694e-01 
  5.828067970609e-01 
  6.087788471619e-01 
  5.568615031146e-01 
  5.748376313295e-01 
  5.928137595443e-01 
  4.918024065874e-01 
  5.097785348023e-01 
  4.267433100602e-01 
  6.398097956946e-01 
  6.228553635419e-01 
  6.059009313892e-01 
  6.677462965192e-01 
  6.507918643665e-01 
  6.956827973438e-01 
  6.032345123739e-01 
  6.044696318762e-01 
  6.057047513784e-01 
  6.231967935211e-01 
  6.244319130233e-01 
  6.431590746682e-01 
  4.345060725732e-01 
  4.138032938250e-01 
  3.931005150768e-01 
  3.386085800254e-01 
  3.179058012772e-01 
  2.427110874776e-01 
  4.265485816353e-01 
  4.906486326896e-01 
  5.547486837438e-01 
  4.074547853680e-01 
  4.715548364223e-01 
  3.883609891008e-01 
  5.518623880716e-01 
  4.826970923021e-01 
  4.135317965326e-01 
  4.720755736418e-01 
  4.029102778723e-01 
  3.922887592120e-01 
  6.412425115036e-01 
  6.271438663768e-01 
  6.130452212501e-01 
  6.160201064566e-01 
  6.019214613298e-01 
  5.907977014096e-01 
  4.930818387903e-01 
  4.875088753987e-01 
  4.819359120071e-01 
  3.866401813088e-01 
  3.810672179172e-01 
  2.801985238273e-01 
  4.941598354664e-01 
  5.664826835543e-01 
  6.388055316421e-01 
  4.900146238086e-01 
  5.623374718964e-01 
  4.858694121508e-01 
  2.781686022778e-01 
  2.759701000828e-01 
  2.737715978877e-01 
  1.387767863472e-01 
  1.365782841522e-01 
 -6.150295833763e-04 
  2.765672460586e-01 
  2.777554022501e-01 
  2.789435584415e-01 
  3.795932337286e-01 
  3.807813899201e-01 
  4.826192213987e-01 
  3.503259479865e-01 
  1.769894208781e-01 
  3.652893769807e-03 
  1.754464230838e-01 
  2.109895975440e-03 
  5.668981810728e-04 
 -1.348931890145e-02 
 -3.744434500416e-03 
  6.000449900620e-03 
  2.542447600126e-01 
  2.639896444136e-01 
  5.219788389266e-01 
  4.826307035796e-01 
  4.674836980326e-01 
  4.523366924856e-01 
  3.801502123407e-01 
  3.650032067937e-01 
  2.776697211018e-01 
  4.489458883421e-01 
  2.212494742377e-01 
 -6.446939866576e-03 
  2.296507789826e-01 
  1.954364878280e-03 
  1.035566962314e-02 
  5.867783019947e-01 
  6.110128706185e-01 
  6.352474392423e-01 
  5.512095777203e-01 
  5.754441463441e-01 
  5.156408534460e-01 
  6.325523401776e-01 
  6.112601230224e-01 
  5.899679058672e-01 
  6.222925784075e-01 
  6.010003612523e-01 
  6.120328166374e-01 
  4.485088449603e-01 
  4.831883021472e-01 
  5.178677593340e-01 
  3.971292466919e-01 
  4.318087038787e-01 
  3.457496484234e-01 
  5.146779435918e-01 
  4.820469743324e-01 
  4.494160050730e-01 
  5.496019852860e-01 
  5.169710160266e-01 
  5.845260269802e-01 
  3.469399233871e-01 
  4.346413899482e-01 
  5.223428565092e-01 
  4.060919690185e-01 
  4.937934355795e-01 
  4.652440146498e-01 
  4.522382257130e-01 
  3.973058622720e-01 
  3.423734988310e-01 
  3.645274879107e-01 
  3.095951244697e-01 
  2.768167501084e-01 
  6.334733163263e-01 
  6.299136440736e-01 
  6.263539718209e-01 
  5.751349563843e-01 
  5.715752841316e-01 
  5.167965964424e-01 
  5.836772059579e-01 
  5.179025483081e-01 
  4.521278906582e-01 
  5.329607192923e-01 
  4.671860616425e-01 
  4.822442326268e-01 
  6.386104443069e-01 
  6.105372045773e-01 
  5.824639648477e-01 
  5.604265294735e-01 
  5.323532897438e-01 
  4.822426146400e-01 
  3.512762023743e-01 
  4.019275055779e-01 
  4.525788087816e-01 
  1.760446360100e-01 
  2.266959392136e-01 
  8.130696455708e-04 
  6.000174877440e-01 
  5.794838477443e-01 
  5.589502077447e-01 
  6.471567696782e-01 
  6.266231296785e-01 
  6.942960516124e-01 
 -7.384900973846e+00 
 -6.496698177153e+00 
 -5.608495380460e+00 
 -7.016722680064e+00 
 -6.128519883370e+00 
 -6.648544386281e+00 
  7.910631942555e-02 
  3.478620240391e-02 
 -9.533914617726e-03 
  1.570375628383e-01 
  1.127174458167e-01 
  2.349688062510e-01 
  7.232569180863e-02 
  3.281149745033e-02 
 -6.702696907967e-03 
  3.355273247112e-02 
 -5.961461887177e-03 
 -5.220226866387e-03 
  2.415443848996e-01 
  1.205366708145e-01 
 -4.710432706272e-04 
  3.062000204616e-01 
  1.851923063765e-01 
  3.708556560237e-01 
  5.757008633138e-01 
  4.700224463634e-01 
  3.643440294129e-01 
  2.838465806572e-01 
  1.781681637067e-01 
 -8.007701999489e-03 
  5.981607697815e-01 
  6.552327539467e-01 
  7.123047381120e-01 
  5.857174186390e-01 
  6.427894028043e-01 
  5.732740674966e-01 
  5.846289677145e-01 
  5.825863475693e-01 
  5.805437274241e-01 
  4.804789748603e-01 
  4.784363547151e-01 
  3.763289820061e-01 
  3.363961931750e-03 
  1.210984959707e-01 
  2.388330300096e-01 
 -7.455420348397e-04 
  1.169889920041e-01 
 -4.855046001429e-03 
  4.385976334825e-01 
  3.394391641523e-01 
  2.402806948221e-01 
  4.102406322965e-01 
  3.110821629663e-01 
  3.818836311105e-01 
 -1.913926395815e-03 
  7.895935754145e-03 
  1.770579790411e-02 
  2.902128899206e-01 
  3.000227520706e-01 
  5.823397062371e-01 
  5.643991997777e-01 
  2.887017552134e-01 
  1.300431064909e-02 
  5.619592238722e-01 
  2.862617793079e-01 
  5.595192479668e-01 
  3.388616508197e-01 
  2.289702595167e-01 
  1.190788682137e-01 
  5.158206138604e-01 
  4.059292225574e-01 
  6.927795769011e-01 
  2.828580686594e-01 
  1.432127133093e-01 
  3.567357959140e-03 
  2.504804767999e-01 
  1.108351214498e-01 
  2.181028849405e-01 
  8.375722715479e-01 
  4.227226604872e-01 
  7.873049426594e-03 
  4.307216419057e-01 
  1.587203084504e-02 
  2.387101226349e-02 
  8.093370085783e-01 
  4.049565339120e-01 
  5.760592458005e-04 
  4.175548858169e-01 
  1.317441115063e-02 
  2.577276305545e-02 
  5.070281409726e-01 
  2.614938894882e-01 
  1.595963800393e-02 
  4.677370791783e-01 
  2.222028276940e-01 
  4.284460173840e-01 
  5.720288036905e-01 
  2.892808056871e-01 
  6.532807683630e-03 
  6.777028217664e-01 
  3.949548237629e-01 
  7.833768398422e-01 
  6.839781110661e-01 
  6.350501886755e-01 
  5.861222662849e-01 
  5.909543837556e-01 
  5.420264613650e-01 
  4.979306564451e-01 
  8.995432037303e-01 
  4.547185407668e-01 
  9.893877803253e-03 
  4.489517321581e-01 
  4.127069194573e-03 
 -1.639739414107e-03 
  7.061064627064e-01 
  7.501954031920e-01 
  7.942843436775e-01 
  7.716095220097e-01 
  8.156984624953e-01 
  8.371125813130e-01 
  7.810317339203e-01 
  7.487431354919e-01 
  7.164545370636e-01 
  6.834399159169e-01 
  6.511513174885e-01 
  5.858480979135e-01 
  6.477491710115e-01 
  5.563467550766e-01 
  4.649443391417e-01 
  6.378671549053e-01 
  5.464647389704e-01 
  6.279851387991e-01 
  4.682201518578e-01 
  4.943188842605e-01 
  5.204176166632e-01 
  5.475594904292e-01 
  5.736582228319e-01 
  6.268988290006e-01 
  6.386753925665e-01 
  6.357482915872e-01 
  6.328211906080e-01 
  7.363054944854e-01 
  7.333783935062e-01 
  8.339355964044e-01 
  8.351949350087e-01 
  8.835484960012e-01 
  9.319020569937e-01 
  7.347765624565e-01 
  7.831301234490e-01 
  6.343581899043e-01 
  8.383852373541e-01 
  8.218609909899e-01 
  8.053367446258e-01 
  8.704686105312e-01 
  8.539443641671e-01 
  9.025519837084e-01 
  6.957104501882e-01 
  7.614348807221e-01 
  8.271593112561e-01 
  6.640890158312e-01 
  7.298134463651e-01 
  6.324675814742e-01 
  8.942145520577e-01 
  8.801501408888e-01 
  8.660857297198e-01 
  9.206874847047e-01 
  9.066230735358e-01 
  9.471604173517e-01 
  8.992168054924e-01 
  8.646914322463e-01 
  8.301660590001e-01 
  4.675028467759e-01 
  4.329774735297e-01 
  3.578888805932e-02 
  6.663601187800e-01 
  8.027804246734e-01 
  9.392007305669e-01 
  8.232172376718e-01 
  9.596375435652e-01 
  9.800743565636e-01 
  9.381097955169e-01 
  7.996734316887e-01 
  6.612370678606e-01 
  7.838328530899e-01 
  6.453964892618e-01 
  6.295559106630e-01 
  5.394597318079e-01 
  5.950880390603e-01 
  6.507163463126e-01 
  6.275142957173e-01 
  6.831426029696e-01 
  7.155688596266e-01 
  6.505340494660e-01 
  5.943526301299e-01 
  5.381712107937e-01 
  5.549130118170e-01 
  4.987315924808e-01 
  4.592919741680e-01 
  9.565250916844e-01 
  9.524495309377e-01 
  9.483739701910e-01 
  9.083095164022e-01 
  9.042339556555e-01 
  8.600939411200e-01 
  9.001981685881e-01 
  9.159361468256e-01 
  9.316741250632e-01 
  8.686087980141e-01 
  8.843467762516e-01 
  8.370194274401e-01 
  1.194592097359e-02 
  4.388340319773e-01 
  8.657221429809e-01 
  4.523249158858e-01 
  8.792130268894e-01 
  8.927039107980e-01 