# vtk DataFile Version 2
NuDG++ 2D simulation
ASCII
DATASET UNSTRUCTURED_GRID

POINTS 2244 double
 -1.656250060000e-01  -2.000000030000e-01  0.0
 -1.828125045000e-01  -1.772221997500e-01  0.0
 -2.000000030000e-01  -1.544443965000e-01  0.0
 -1.828125045000e-01  -2.000000030000e-01  0.0
 -2.000000030000e-01  -1.772221997500e-01  0.0
 -2.000000030000e-01  -2.000000030000e-01  0.0
 -6.428571790000e-02  -1.700000018000e-01  0.0
 -8.058035746000e-02  -1.850000024000e-01  0.0
 -9.687499702000e-02  -2.000000030000e-01  0.0
 -6.339285895000e-02  -1.850000024000e-01  0.0
 -7.968749851000e-02  -2.000000030000e-01  0.0
 -6.250000000000e-02  -2.000000030000e-01  0.0
 -2.000000030000e-01  -1.544443965000e-01  0.0
 -1.750000045000e-01  -1.379364989500e-01  0.0
 -1.500000060000e-01  -1.214286014000e-01  0.0
 -2.000000030000e-01  -1.316666491500e-01  0.0
 -1.750000045000e-01  -1.151587516000e-01  0.0
 -2.000000030000e-01  -1.088889018000e-01  0.0
 -1.500000060000e-01  -1.214286014000e-01  0.0
 -1.750000045000e-01  -1.379364989500e-01  0.0
 -2.000000030000e-01  -1.544443965000e-01  0.0
 -1.500000060000e-01  -1.457143016000e-01  0.0
 -1.750000045000e-01  -1.622221991500e-01  0.0
 -1.500000060000e-01  -1.700000018000e-01  0.0
 -1.500000060000e-01  -7.285714149000e-02  0.0
 -1.750000045000e-01  -9.087302164500e-02  0.0
 -2.000000030000e-01  -1.088889018000e-01  0.0
 -1.500000060000e-01  -9.714287144500e-02  0.0
 -1.750000045000e-01  -1.151587516000e-01  0.0
 -1.500000060000e-01  -1.214286014000e-01  0.0
  1.832975030000e+00  -4.625000060000e-02  0.0
  1.853987515000e+00  -1.231250018000e-01  0.0
  1.875000000000e+00  -2.000000030000e-01  0.0
  1.916487515000e+00  -7.187499851000e-02  0.0
  1.937500000000e+00  -1.487499997100e-01  0.0
  2.000000000000e+00  -9.749999642000e-02  0.0
 -1.500000060000e-01  -1.700000018000e-01  0.0
 -1.360000037000e-01  -1.525000036000e-01  0.0
 -1.220000014000e-01  -1.350000054000e-01  0.0
 -1.500000060000e-01  -1.457143016000e-01  0.0
 -1.360000037000e-01  -1.282143034000e-01  0.0
 -1.500000060000e-01  -1.214286014000e-01  0.0
  2.849999964000e-01  -2.333333530000e-02  0.0
  2.837499976000e-01  -8.166666795000e-02  0.0
  2.824999988000e-01  -1.400000006000e-01  0.0
  3.174999952000e-01  -4.666666780000e-02  0.0
  3.162499964000e-01  -1.050000004500e-01  0.0
  3.499999940000e-01  -7.000000030000e-02  0.0
 -1.071429029000e-01  -1.700000018000e-01  0.0
 -8.571431040000e-02  -1.700000018000e-01  0.0
 -6.428571790000e-02  -1.700000018000e-01  0.0
 -9.857145324000e-02  -1.525000036000e-01  0.0
 -7.714286074000e-02  -1.525000036000e-01  0.0
 -9.000000358000e-02  -1.350000054000e-01  0.0
 -1.312499940000e-01  -2.000000030000e-01  0.0
 -1.191964484500e-01  -1.850000024000e-01  0.0
 -1.071429029000e-01  -1.700000018000e-01  0.0
 -1.406250000000e-01  -1.850000024000e-01  0.0
 -1.285714544500e-01  -1.700000018000e-01  0.0
 -1.500000060000e-01  -1.700000018000e-01  0.0
 -1.220000014000e-01  -1.350000054000e-01  0.0
 -1.060000024900e-01  -1.350000054000e-01  0.0
 -9.000000358000e-02  -1.350000054000e-01  0.0
 -1.185000017500e-01  -1.175000034500e-01  0.0
 -1.025000028400e-01  -1.175000034500e-01  0.0
 -1.150000021000e-01  -1.000000015000e-01  0.0
 -9.000000358000e-02  -1.350000054000e-01  0.0
 -1.060000024900e-01  -1.350000054000e-01  0.0
 -1.220000014000e-01  -1.350000054000e-01  0.0
 -9.857145324000e-02  -1.525000036000e-01  0.0
 -1.145714521500e-01  -1.525000036000e-01  0.0
 -1.071429029000e-01  -1.700000018000e-01  0.0
 -7.778175920000e-02  -9.192386270000e-02  0.0
 -9.639088065000e-02  -9.596193210000e-02  0.0
 -1.150000021000e-01  -1.000000015000e-01  0.0
 -8.389088139000e-02  -1.134619340500e-01  0.0
 -1.025000028400e-01  -1.175000034500e-01  0.0
 -9.000000358000e-02  -1.350000054000e-01  0.0
 -1.220000014000e-01  -1.350000054000e-01  0.0
 -1.185000017500e-01  -1.175000034500e-01  0.0
 -1.150000021000e-01  -1.000000015000e-01  0.0
 -1.360000037000e-01  -1.282143034000e-01  0.0
 -1.325000040500e-01  -1.107143014500e-01  0.0
 -1.500000060000e-01  -1.214286014000e-01  0.0
 -7.778175920000e-02  -9.192386270000e-02  0.0
 -8.389088139000e-02  -1.134619340500e-01  0.0
 -9.000000358000e-02  -1.350000054000e-01  0.0
 -6.639088876500e-02  -1.022535823500e-01  0.0
 -7.250001095500e-02  -1.237916537000e-01  0.0
 -5.500001833000e-02  -1.125833020000e-01  0.0
 -1.071429029000e-01  -1.700000018000e-01  0.0
 -1.145714521500e-01  -1.525000036000e-01  0.0
 -1.220000014000e-01  -1.350000054000e-01  0.0
 -1.285714544500e-01  -1.700000018000e-01  0.0
 -1.360000037000e-01  -1.525000036000e-01  0.0
 -1.500000060000e-01  -1.700000018000e-01  0.0
  6.250000093000e-03  -2.000000030000e-01  0.0
  4.062500153650e-02  -2.000000030000e-01  0.0
  7.500000298000e-02  -2.000000030000e-01  0.0
  1.383928512150e-02  -1.850000024000e-01  0.0
  4.821428656500e-02  -1.850000024000e-01  0.0
  2.142857015000e-02  -1.700000018000e-01  0.0
 -1.500000060000e-01  -7.285714149000e-02  0.0
 -1.500000060000e-01  -9.714287144500e-02  0.0
 -1.500000060000e-01  -1.214286014000e-01  0.0
 -1.325000040500e-01  -8.642857149500e-02  0.0
 -1.325000040500e-01  -1.107143014500e-01  0.0
 -1.150000021000e-01  -1.000000015000e-01  0.0
 -2.000000030000e-01  -6.333333254000e-02  0.0
 -1.750000045000e-01  -6.809523701500e-02  0.0
 -1.500000060000e-01  -7.285714149000e-02  0.0
 -1.750000045000e-01  -4.380952660000e-02  0.0
 -1.500000060000e-01  -4.857143107500e-02  0.0
 -1.500000060000e-01  -2.428572066000e-02  0.0
 -2.000000030000e-01  -6.333333254000e-02  0.0
 -2.000000030000e-01  -8.611111717000e-02  0.0
 -2.000000030000e-01  -1.088889018000e-01  0.0
 -1.750000045000e-01  -6.809523701500e-02  0.0
 -1.750000045000e-01  -9.087302164500e-02  0.0
 -1.500000060000e-01  -7.285714149000e-02  0.0
 -2.000000030000e-01  -6.333333254000e-02  0.0
 -1.750000045000e-01  -4.380952660000e-02  0.0
 -1.500000060000e-01  -2.428572066000e-02  0.0
 -2.000000030000e-01  -4.055555630500e-02  0.0
 -1.750000045000e-01  -2.103175036500e-02  0.0
 -2.000000030000e-01  -1.777778007000e-02  0.0
 -1.500000060000e-01  -2.428572066000e-02  0.0
 -1.500000060000e-01  -4.857143107500e-02  0.0
 -1.500000060000e-01  -7.285714149000e-02  0.0
 -1.281259023000e-01  -2.896608505500e-02  0.0
 -1.281259023000e-01  -5.325179547000e-02  0.0
 -1.062517986000e-01  -3.364644945000e-02  0.0
 -1.099999994000e-01   1.996667010000e-08  0.0
 -1.300000027000e-01  -1.214285034666e-02  0.0
 -1.500000060000e-01  -2.428572066000e-02  0.0
 -1.081258990000e-01  -1.682321474166e-02  0.0
 -1.281259023000e-01  -2.896608505500e-02  0.0
 -1.062517986000e-01  -3.364644945000e-02  0.0
 -1.500000060000e-01  -2.428572066000e-02  0.0
 -1.500000060000e-01   0.000000000000e+00  0.0
 -1.500000060000e-01   2.428572066000e-02  0.0
 -1.750000045000e-01  -2.103175036500e-02  0.0
 -1.750000045000e-01   3.253970295000e-03  0.0
 -2.000000030000e-01  -1.777778007000e-02  0.0
 -1.500000060000e-01  -7.285714149000e-02  0.0
 -1.226314045700e-01  -6.892856210000e-02  0.0
 -9.526280314000e-02  -6.499998271000e-02  0.0
 -1.281259023000e-01  -5.325179547000e-02  0.0
 -1.007573008700e-01  -4.932321608000e-02  0.0
 -1.062517986000e-01  -3.364644945000e-02  0.0
  3.499999940000e-01   1.400000006000e-01  0.0
  4.021931737500e-01   1.224999986500e-01  0.0
  4.543863535000e-01   1.049999967000e-01  0.0
  4.187500029500e-01   1.749999970000e-01  0.0
  4.709431827000e-01   1.574999950500e-01  0.0
  4.875000119000e-01   2.099999934000e-01  0.0
 -7.101409137000e-02  -4.349999130000e-02  0.0
 -8.313844725500e-02  -5.424998700500e-02  0.0
 -9.526280314000e-02  -6.499998271000e-02  0.0
 -6.449843011500e-02  -5.250913650000e-02  0.0
 -7.662278600000e-02  -6.325913220500e-02  0.0
 -5.798276886000e-02  -6.151828170000e-02  0.0
 -9.526280314000e-02  -6.499998271000e-02  0.0
 -1.226314045700e-01  -6.892856210000e-02  0.0
 -1.500000060000e-01  -7.285714149000e-02  0.0
 -1.051314026200e-01  -8.249999210500e-02  0.0
 -1.325000040500e-01  -8.642857149500e-02  0.0
 -1.150000021000e-01  -1.000000015000e-01  0.0
 -6.181925908000e-02  -1.656441018000e-02  0.0
 -7.051259093000e-02  -1.954082492500e-02  0.0
 -7.920592278000e-02  -2.251723967000e-02  0.0
 -5.862244405000e-02  -2.428220026000e-02  0.0
 -6.731577590000e-02  -2.725861500500e-02  0.0
 -5.542562902000e-02  -3.199999034000e-02  0.0
 -7.920592278000e-02  -2.251723967000e-02  0.0
 -9.272886069000e-02  -2.808184456000e-02  0.0
 -1.062517986000e-01  -3.364644945000e-02  0.0
 -7.511000707500e-02  -3.300861548500e-02  0.0
 -8.863294498500e-02  -3.857322037500e-02  0.0
 -7.101409137000e-02  -4.349999130000e-02  0.0
 -7.101409137000e-02  -4.349999130000e-02  0.0
 -6.321986019500e-02  -3.774999082000e-02  0.0
 -5.542562902000e-02  -3.199999034000e-02  0.0
 -7.511000707500e-02  -3.300861548500e-02  0.0
 -6.731577590000e-02  -2.725861500500e-02  0.0
 -7.920592278000e-02  -2.251723967000e-02  0.0
 -7.920592278000e-02  -2.251723967000e-02  0.0
 -9.460296109000e-02  -1.125860985166e-02  0.0
 -1.099999994000e-01   1.996667010000e-08  0.0
 -9.272886069000e-02  -2.808184456000e-02  0.0
 -1.081258990000e-01  -1.682321474166e-02  0.0
 -1.062517986000e-01  -3.364644945000e-02  0.0
 -7.778175920000e-02  -9.192386270000e-02  0.0
 -6.788226403000e-02  -7.672107220000e-02  0.0
 -5.798276886000e-02  -6.151828170000e-02  0.0
 -8.652228117000e-02  -7.846192270500e-02  0.0
 -7.662278600000e-02  -6.325913220500e-02  0.0
 -9.526280314000e-02  -6.499998271000e-02  0.0
 -7.101409137000e-02  -4.349999130000e-02  0.0
 -8.863294498500e-02  -3.857322037500e-02  0.0
 -1.062517986000e-01  -3.364644945000e-02  0.0
 -8.313844725500e-02  -5.424998700500e-02  0.0
 -1.007573008700e-01  -4.932321608000e-02  0.0
 -9.526280314000e-02  -6.499998271000e-02  0.0
 -7.778175920000e-02  -9.192386270000e-02  0.0
 -8.652228117000e-02  -7.846192270500e-02  0.0
 -9.526280314000e-02  -6.499998271000e-02  0.0
 -9.639088065000e-02  -9.596193210000e-02  0.0
 -1.051314026200e-01  -8.249999210500e-02  0.0
 -1.150000021000e-01  -1.000000015000e-01  0.0
[...]
POINT_DATA 2244
SCALARS field1 double 1
LOOKUP_TABLE default
  2.947491978469e-03 
  1.229006195422e-01 
  2.428537471060e-01 
  1.314544798939e-03 
  1.212676723627e-01 
 -3.184023805909e-04 
  3.482093319478e-01 
  1.728773496124e-01 
 -2.454632722923e-03 
  1.751394515118e-01 
 -1.925308235365e-04 
  2.069571075850e-03 
  2.402776251588e-01 
  3.106773462076e-01 
  3.810770672564e-01 
  3.312780738250e-01 
  4.016777948738e-01 
  4.222785224912e-01 
  3.819845921157e-01 
  3.110408413248e-01 
  2.400970905340e-01 
  2.867999725702e-01 
  2.158562217793e-01 
  1.916153530246e-01 
  5.252821424027e-01 
  4.740163611195e-01 
  4.227505798362e-01 
  4.556113976893e-01 
  4.043456164061e-01 
  3.859406529760e-01 
  1.870306359936e-01 
  4.651071047366e-02 
 -9.400921504633e-02 
  2.294839164339e-01 
  8.896399091389e-02 
  2.719371968741e-01 
  1.923842566075e-01 
  2.758213839286e-01 
  3.592585112498e-01 
  2.876361435348e-01 
  3.710732708560e-01 
  3.828880304622e-01 
  5.168214539724e-01 
  4.836811005930e-01 
  4.505407472136e-01 
  5.183980295175e-01 
  4.852576761381e-01 
  5.199746050625e-01 
  2.575844062108e-01 
  3.033689249098e-01 
  3.491534436089e-01 
  3.317742129178e-01 
  3.775587316168e-01 
  4.059640196247e-01 
 -5.299596286619e-05 
  1.292446618881e-01 
  2.585423197390e-01 
  9.314003553562e-02 
  2.224376933866e-01 
  1.863330670341e-01 
  3.551333745318e-01 
  3.797138823487e-01 
  4.042943901656e-01 
  4.214023252986e-01 
  4.459828331154e-01 
  4.876712760653e-01 
  4.025884761010e-01 
  3.791778853342e-01 
  3.557672945674e-01 
  3.300259159870e-01 
  3.066153252202e-01 
  2.574633558730e-01 
  5.396334155490e-01 
  5.137358455231e-01 
  4.878382754972e-01 
  4.738471827764e-01 
  4.479496127505e-01 
  4.080609500037e-01 
  3.575198063491e-01 
  4.220026864748e-01 
  4.864855666006e-01 
  3.705604460771e-01 
  4.350433262028e-01 
  3.836010858050e-01 
  5.399473171200e-01 
  4.732875243102e-01 
  4.066277315004e-01 
  5.436843779870e-01 
  4.770245851772e-01 
  5.474214388539e-01 
  2.566656807766e-01 
  3.079393311473e-01 
  3.592129815181e-01 
  2.236460692516e-01 
  2.749197196224e-01 
  1.906264577266e-01 
  1.526665533270e-03 
  4.038663319798e-03 
  6.550661106327e-03 
  2.509268726269e-01 
  2.534388704135e-01 
  5.003270797206e-01 
  5.249450444514e-01 
  4.545719332682e-01 
  3.841988220851e-01 
  5.052902643419e-01 
  4.349171531587e-01 
  4.856354842323e-01 
  5.446061385114e-01 
  5.329477039541e-01 
  5.212892693967e-01 
  5.594022281585e-01 
  5.477437936011e-01 
  5.741983178056e-01 
  5.431387254430e-01 
  4.830197683251e-01 
  4.229008112072e-01 
  5.327204529014e-01 
  4.726014957835e-01 
  5.223021803597e-01 
  5.462811610792e-01 
  5.604518918733e-01 
  5.746226226673e-01 
  5.761406778549e-01 
  5.903114086489e-01 
  6.060001946305e-01 
  5.745767157741e-01 
  5.503534979652e-01 
  5.261302801564e-01 
  5.387696313866e-01 
  5.145464135777e-01 
  5.029625469991e-01 
  4.761715790819e-01 
  5.256395463578e-01 
  5.751075136337e-01 
  4.860797320045e-01 
  5.355476992804e-01 
  4.959878849271e-01 
  5.690964432203e-01 
  5.767734200032e-01 
  5.844503967861e-01 
  5.879295700679e-01 
  5.956065468508e-01 
  6.067626969155e-01 
  5.251528482486e-01 
  5.126175054736e-01 
  5.000821626985e-01 
  5.130838180053e-01 
  5.005484752303e-01 
  5.010147877620e-01 
  4.449468680565e-01 
  4.956924588758e-01 
  5.464380496951e-01 
  2.532625289854e-01 
  3.040081198046e-01 
  6.157818991420e-02 
  4.669111082453e-01 
  4.870320475417e-01 
  5.071529868381e-01 
  5.204115666105e-01 
  5.405325059069e-01 
  5.739120249757e-01 
  5.026662246413e-01 
  5.139907735743e-01 
  5.253153225074e-01 
  4.962810421808e-01 
  5.076055911138e-01 
  4.898958597202e-01 
  1.838208133420e-01 
  2.747487257693e-01 
  3.656766381966e-01 
  2.435781689167e-01 
  3.345060813440e-01 
  3.033355244915e-01 
  3.503123642693e-01 
  4.217105924703e-01 
  4.931088206713e-01 
  4.086995468860e-01 
  4.800977750870e-01 
  4.670867295027e-01 
  4.697861073263e-01 
  3.907162337074e-01 
  3.116463600885e-01 
  4.148435402321e-01 
  3.357736666132e-01 
  3.599009731378e-01 
  3.494621159845e-01 
  4.100846667839e-01 
  4.707072175833e-01 
  4.225004309496e-01 
  4.831229817490e-01 
  4.955387459146e-01 
  5.397333732646e-01 
  5.592759023459e-01 
  5.788184314272e-01 
  5.225363930554e-01 
  5.420789221368e-01 
  5.053394128463e-01 
  4.700652194507e-01 
  4.835500118626e-01 
  4.970348042745e-01 
  4.900013250129e-01 
  5.034861174248e-01 
  5.099374305750e-01 
  5.343678521819e-01 
  5.180302981461e-01 
  5.016927441104e-01 
  5.111033676674e-01 
  4.947658136317e-01 
  4.878388831530e-01 
  3.605975165037e-01 
  2.760199858019e-01 
  1.914424551001e-01 
  3.464138721470e-01 
  2.618363414452e-01 
  3.322302277903e-01 
  5.468163350795e-01 
  4.765853719403e-01 
  4.063544088012e-01 
  4.485673847086e-01 
  3.783364215694e-01 
  3.503184343377e-01 
  2.340055949221e-01 
  2.488940771020e-01 
  2.637825592820e-01 
  4.140778069769e-01 
  4.289662891569e-01 
  5.941500190317e-01 
  5.641999790598e-01 
  5.031726901668e-01 
  4.421454012738e-01 
  5.893653261529e-01 
  5.283380372599e-01 
  6.145306732459e-01 
  5.607496650023e-01 
  5.527259531298e-01 
  5.447022412572e-01 
  4.558917856993e-01 
  4.478680738267e-01 
  3.510339063963e-01 
  5.367990692699e-01 
  6.078233655338e-01 
  6.788476617977e-01 
  5.569531165303e-01 
  6.279774127942e-01 
  5.771071637908e-01 
  6.824343371861e-01 
  6.102672543768e-01 
  5.381001715675e-01 
  6.190054946293e-01 
  5.468384118200e-01 
  5.555766520725e-01 
  7.757330938695e-01 
  7.301646886511e-01 
  6.845962834327e-01 
  6.629985356277e-01 
  6.174301304093e-01 
  5.502639773859e-01 
  6.753240705084e-01 
  6.259229848320e-01 
  5.765218991557e-01 
  6.828025000977e-01 
  6.334014144214e-01 
  6.902809296871e-01 
  5.466433116545e-01 
  5.578213350035e-01 
  5.689993583525e-01 
  6.632670449098e-01 
  6.744450682587e-01 
  7.798907781650e-01 
  5.634650398417e-01 
  4.582317442910e-01 
  3.529984487402e-01 
  5.028037963915e-01 
  3.975705008408e-01 
  4.421425529414e-01 
  8.344131135656e-01 
  8.086644085476e-01 
  7.829157035296e-01 
  7.032039574416e-01 
  6.774552524236e-01 
  5.719948013176e-01 
 -6.628311576512e-04 
  3.307100081158e-01 
  6.620828473892e-01 
 -6.138141954194e-03 
  3.252346973192e-01 
 -1.161345275074e-02 
  7.989008651051e-01 
  7.485491761976e-01 
  6.981974872901e-01 
  7.682731921497e-01 
  7.179215032422e-01 
  7.376455191944e-01 
  6.929092694627e-01 
  7.458042813214e-01 
  7.986992931802e-01 
  7.545354983331e-01 
  8.074305101919e-01 
  8.161617272036e-01 
  7.347202714593e-01 
  7.118920119872e-01 
  6.890637525150e-01 
  3.741737738436e-01 
  3.513455143715e-01 
  1.362727622795e-02 
  7.819466952536e-01 
  7.614164704722e-01 
  7.408862456908e-01 
  7.365664251077e-01 
  7.160362003263e-01 
  6.911861549617e-01 
  7.779153453825e-01 
  7.238149855354e-01 
  6.697146256884e-01 
  8.010077531704e-01 
  7.469073933233e-01 
  8.241001609583e-01 
  8.363923799064e-01 
  7.042515298194e-01 
  5.721106797323e-01 
  7.261348576171e-01 
  5.939940075300e-01 
  6.158773353277e-01 
  4.432904451458e-01 
  4.652608297771e-01 
  4.872312144085e-01 
  5.295067187824e-01 
  5.514771034137e-01 
  6.157229924190e-01 
  6.721352653047e-01 
  6.852462495007e-01 
  6.983572336967e-01 
  7.042960229087e-01 
  7.174070071047e-01 
  7.364567805127e-01 
 -1.390886861928e-03 
  1.577534369122e-01 
  3.168977606864e-01 
  7.648349626638e-03 
  1.667926734008e-01 
  1.668758611520e-02 
  3.114092599483e-01 
  3.874189709148e-01 
  4.634286818813e-01 
  4.062420631861e-01 
  4.822517741526e-01 
  5.010748664240e-01 
  4.458368525840e-01 
  2.251065431132e-01 
  4.376233642344e-03 
  2.241903397470e-01 
  3.460030276151e-03 
  2.543826909959e-03 
 -1.407428259921e-02 
  2.757751821161e-02 
  6.922931902243e-02 
  8.345178637901e-02 
  1.251035871898e-01 
  1.809778553572e-01 
  6.987865001793e-03 
 -3.438820658925e-03 
 -1.386550631964e-02 
  1.524859009791e-01 
  1.420592153184e-01 
  2.979839369565e-01 
  2.993041040020e-01 
  1.505323563722e-01 
  1.760608742420e-03 
  2.684954896837e-01 
  1.197237420539e-01 
  2.376868753654e-01 
  3.135362731327e-01 
  4.141082861754e-01 
  5.146802992181e-01 
  1.681973258032e-01 
  2.687693388459e-01 
  2.285837847379e-02 
 -1.959891202279e-02 
  7.824687542183e-02 
  1.760926628665e-01 
  1.381352962527e-01 
  2.359810836974e-01 
  2.958695045283e-01 
  6.545155730263e-03 
  7.487962273091e-03 
  8.430768815918e-03 
  3.719092756321e-01 
  3.728520821749e-01 
  7.372733955340e-01 
  1.292714835132e-02 
  3.509371244382e-01 
  6.889471005250e-01 
  6.765970569871e-03 
  3.447759466567e-01 
  6.047927884215e-04 
  4.753336886709e-01 
  2.379836417281e-01 
  6.335947853741e-04 
  4.323637835487e-01 
  1.950137366059e-01 
  3.893938784265e-01 
  5.710304638797e-03 
  2.737859640225e-01 
  5.418616234063e-01 
  1.552403449782e-02 
  2.835996938816e-01 
  2.533776435684e-02 
  1.957729329193e-02 
  3.454414247924e-01 
  6.713055562929e-01 
  3.739806403048e-01 
  6.998447718053e-01 
  7.283839873177e-01 
  4.441637094228e-01 
  2.266426496970e-01 
  9.121589971208e-03 
  4.650346385924e-01 
  2.475135788666e-01 
  4.859055677620e-01 
  2.633972539814e-01 
  1.323561131521e-01 
  1.314972322824e-03 
  1.337298113562e-01 
  2.688670526917e-03 
  4.062368731010e-03 
  3.698545075716e-02 
  2.852027893403e-01 
  5.334201279234e-01 
  3.531038425548e-01 
  6.013211811380e-01 
  6.692222343525e-01 
  5.126995945540e-01 
  5.450961230653e-01 
  5.774926515767e-01 
  5.922612554328e-01 
  6.246577839442e-01 
  6.718229163117e-01 
  3.580824829650e-01 
  1.835192693082e-01 
  8.956055651419e-03 
  3.967445229995e-01 
  2.221813093427e-01 
  4.354065630339e-01 
  8.349631500410e-01 
  7.235159939227e-01 
  6.120688378045e-01 
  7.523923921679e-01 
  6.409452360496e-01 
  6.698216342948e-01 
  5.047988066379e-01 
  4.834316721408e-01 
  4.620645376437e-01 
  5.424380193825e-01 
  5.210708848854e-01 
  5.800772321272e-01 
  1.868924814623e-03 
  5.201540371853e-03 
  8.534155929082e-03 
  1.818280508357e-01 
  1.851606663929e-01 
  3.617871768567e-01 
  6.056785020349e-02 
  2.707664741466e-02 
 -6.414555374174e-03 
  2.780119334937e-02 
 -5.690009439456e-03 
 -4.965463504738e-03 
  5.515269381987e-01 
  5.672588469800e-01 
  5.829907557613e-01 
  5.340453964128e-01 
  5.497773051941e-01 
  5.165638546269e-01 
  5.852307750548e-01 
  5.946575001555e-01 
  6.040842252563e-01 
  5.964473881886e-01 
  6.058741132894e-01 
  6.076640013225e-01 
  6.030231169018e-01 
  5.742827170087e-01 
  5.455423171157e-01 
  5.732280096534e-01 
  5.444876097604e-01 
  5.434329024050e-01 
  5.463498251684e-01 
  5.741202809676e-01 
  6.018907367667e-01 
  5.639344072871e-01 
  5.917048630862e-01 
  5.815189894057e-01 
  5.424857918935e-01 
  5.448113342140e-01 
  5.471368765346e-01 
  4.831786197435e-01 
  4.855041620640e-01 
  4.238714475934e-01 
 -5.360954677086e-02 
 -9.118966188493e-02 
 -1.287697769990e-01 
  5.051988965377e-02 
  1.293977453970e-02 
  1.546493260784e-01 
  5.858818953158e-01 
  5.320747208161e-01 
  4.782675463164e-01 
  5.476479839436e-01 
  4.938408094440e-01 
  5.094140725715e-01 
  5.858479891001e-01 
  5.791734994071e-01 
  5.724990097141e-01 
  5.341387277444e-01 
  5.274642380514e-01 
  4.824294663886e-01 
  3.587138187217e-01 
  4.342821628763e-01 
  5.098505070309e-01 
  4.163395800101e-01 
  4.919079241646e-01 
  4.739653412984e-01 
  4.854578570408e-01 
  4.249367309697e-01 
  3.644156048987e-01 
  4.043755022445e-01 
  3.438543761735e-01 
  3.232931474483e-01 
  5.085552189034e-01 
  4.913338593661e-01 
  4.741124998287e-01 
  5.136597196570e-01 
  4.964383601197e-01 
  5.187642204107e-01 
  4.739841354122e-01 
  4.893699472946e-01 
  5.047557591770e-01 
  4.169147481743e-01 
  4.323005600567e-01 
  3.598453609363e-01 
  5.459652444284e-01 
  5.309133713455e-01 
  5.158614982627e-01 
  5.705812765228e-01 
  5.555294034400e-01 
  5.951973086172e-01 
  5.134367203598e-01 
  5.146634636353e-01 
  5.158902069107e-01 
  5.328633243720e-01 
  5.340900676475e-01 
  5.522899283842e-01 
  3.654575210336e-01 
  3.470948002914e-01 
  3.287320795491e-01 
  2.814554491323e-01 
  2.630927283900e-01 
  1.974533772310e-01 
  3.593924421096e-01 
  4.149440143999e-01 
  4.704955866902e-01 
  3.425042709949e-01 
  3.980558432851e-01 
  3.256160998801e-01 
  4.680490822156e-01 
  4.099003591513e-01 
  3.517516360869e-01 
  3.982388368511e-01 
  3.400901137868e-01 
  3.284285914866e-01 
  5.507954799553e-01 
  5.360032284026e-01 
  5.212109768498e-01 
  5.287640344287e-01 
  5.139717828760e-01 
  5.067325889021e-01 
  4.231615796430e-01 
  4.176858284187e-01 
  4.122100771945e-01 
  3.318898338393e-01 
  3.264140826151e-01 
  2.406180880356e-01 
  4.241897429040e-01 
  4.866695168768e-01 
  5.491492908495e-01 
  4.198807364540e-01 
  4.823605104268e-01 
  4.155717300041e-01 
  2.387096311049e-01 
  2.380480686078e-01 
  2.373865061106e-01 
  1.191698821149e-01 
  1.185083196178e-01 
 -3.698668751470e-04 
  2.396423010598e-01 
  2.395379147730e-01 
  2.394335284861e-01 
  3.262706263128e-01 
  3.261662400259e-01 
  4.128989515657e-01 
  3.084684757111e-01 
  1.565309825387e-01 
  4.593489366359e-03 
  1.542122875943e-01 
  2.274794421962e-03 
 -4.390052243635e-05 
  2.631953164586e-02 
  1.354183903058e-02 
  7.641464152957e-04 
  2.489509999862e-01 
  2.361733073709e-01 
  4.715824683266e-01 
  4.130976580002e-01 
  4.009386545233e-01 
  3.887796510465e-01 
  3.268075118169e-01 
  3.146485083401e-01 
  2.405173656337e-01 
  4.316816175420e-01 
  2.162777263954e-01 
  8.738352487981e-04 
  2.330911845065e-01 
  1.768729335986e-02 
  3.450075147092e-02 
  5.037960121301e-01 
  5.225460321588e-01 
  5.412960521875e-01 
  4.747104991731e-01 
  4.934605192018e-01 
  4.456249862160e-01 
  5.396669494845e-01 
  5.227773531013e-01 
  5.058877567181e-01 
  5.301207282703e-01 
  5.132311318871e-01 
  5.205745070561e-01 
  3.848000029974e-01 
  4.162992501780e-01 
  4.477984973585e-01 
  3.436268928608e-01 
  3.751261400414e-01 
  3.024537827242e-01 
  4.447954498253e-01 
  4.155691352035e-01 
  3.863428205816e-01 
  4.735550877888e-01 
  4.443287731670e-01 
  5.023147257523e-01 
  3.043848196155e-01 
  3.779079122478e-01 
  4.514310048800e-01 
  3.557091712961e-01 
  4.292322639283e-01 
  4.070335229766e-01 
  3.882740932207e-01 
  3.436763558250e-01 
  2.990786184293e-01 
  3.138685877562e-01 
  2.692708503605e-01 
  2.394630822918e-01 
  5.396559475912e-01 
  5.395712385662e-01 
  5.394865295411e-01 
  4.929975253670e-01 
  4.929128163420e-01 
  4.463391031428e-01 
  5.017840970207e-01 
  4.452169717340e-01 
  3.886498464473e-01 
  4.572875408106e-01 
  4.007204155239e-01 
  4.127909846005e-01 
  5.488470021917e-01 
  5.247795051962e-01 
  5.007120082008e-01 
  4.808411606680e-01 
  4.567736636725e-01 
  4.128353191442e-01 
  3.089218006054e-01 
  3.529172647354e-01 
  3.969127288655e-01 
  1.562712299416e-01 
  2.002666940717e-01 
  3.620659277882e-03 
  5.117576405369e-01 
  4.940075982763e-01 
  4.762575560157e-01 
  5.527630434369e-01 
  5.350130011763e-01 
  5.937684463369e-01 
  2.674786229468e-03 
  4.757258119481e-02 
  9.247037616015e-02 
 -1.474913284945e-02 
  3.014866211589e-02 
 -3.217305192837e-02 
  6.450516414972e-02 
  2.861972008913e-02 
 -7.265723971464e-03 
  1.283717947897e-01 
  9.248635072910e-02 
  1.922384254297e-01 
  5.886290093090e-02 
  2.653439275248e-02 
 -5.794115425955e-03 
  2.745808365569e-02 
 -4.870424522743e-03 
 -3.946733619532e-03 
  1.967680020027e-01 
  9.846100877809e-02 
  1.540155534517e-04 
  2.526159634234e-01 
  1.543089701988e-01 
  3.084639248442e-01 
  4.761498029426e-01 
  3.905242268582e-01 
  3.048986507738e-01 
  2.350932666610e-01 
  1.494676905766e-01 
 -5.963269620647e-03 
  4.929419216788e-01 
  5.497832001286e-01 
  6.066244785784e-01 
  4.900614050477e-01 
  5.469026834975e-01 
  4.871808884166e-01 
  4.832617300216e-01 
  4.880094327567e-01 
  4.927571354919e-01 
  3.983860373856e-01 
  4.031337401208e-01 
  3.135103447497e-01 
  2.784256363352e-03 
  9.889476673301e-02 
  1.950052771027e-01 
 -5.398188532338e-04 
  9.557069151643e-02 
 -3.863894069819e-03 
  3.685334094326e-01 
  2.822124066027e-01 
  1.958914037728e-01 
  3.425978338643e-01 
  2.562768310344e-01 
  3.166622582959e-01 
 -1.743428318215e-03 
  5.495195505964e-03 
  1.273381933014e-02 
  2.394698783602e-01 
  2.467085021844e-01 
  4.806831850386e-01 
  4.959285683738e-01 
  2.537250184496e-01 
  1.152146852542e-02 
  4.945226962831e-01 
  2.523191463589e-01 
  4.931168241924e-01 
  2.794086665482e-01 
  2.034189938952e-01 
  1.274293212421e-01 
  4.254384882605e-01 
  3.494488156075e-01 
  5.714683099728e-01 
  2.428765605028e-01 
  1.230990572427e-01 
  3.321553982565e-03 
  2.160264400281e-01 
  9.624893676796e-02 
  1.891763195533e-01 
  6.916451895086e-01 
  3.487054602395e-01 
  5.765730970320e-03 
  3.551648984003e-01 
  1.222516913118e-02 
  1.868460729204e-02 
  6.695252982163e-01 
  3.346019897182e-01 
 -3.213187798693e-04 
  3.442416127421e-01 
  9.318304243987e-03 
  1.895792726784e-02 
  4.446337469141e-01 
  2.279365435946e-01 
  1.123934027502e-02 
  4.121315787127e-01 
  1.954343753931e-01 
  3.796294105112e-01 
  4.729954857861e-01 
  2.388713989238e-01 
  4.747312061573e-03 
  5.613600704686e-01 
  3.272359836063e-01 
  6.497246551510e-01 
  5.422285539853e-01 
  5.101771034211e-01 
  4.781256528570e-01 
  4.834861801556e-01 
  4.514347295914e-01 
  4.247438063259e-01 
  7.407584660020e-01 
  3.742448981519e-01 
  7.731330301781e-03 
  3.705204159336e-01 
  4.006848083432e-03 
  2.823658650839e-04 
  6.017319692796e-01 
  6.292597715830e-01 
  6.567875738864e-01 
  6.575613283287e-01 
  6.850891306322e-01 
  7.133906873779e-01 
  6.469299654954e-01 
  6.282617900383e-01 
  6.095936145811e-01 
  5.651959550864e-01 
  5.465277796292e-01 
  4.834619446774e-01 
  5.610058453020e-01 
  4.830502368244e-01 
  4.050946283469e-01 
  5.511253051369e-01 
  4.731696966593e-01 
  5.412447649718e-01 
  4.089356257205e-01 
  4.294286140676e-01 
  4.499216024147e-01 
  4.744858100650e-01 
  4.949787984121e-01 
  5.400359944096e-01 
  5.495166538242e-01 
  5.447415436176e-01 
  5.399664334109e-01 
  6.306461163648e-01 
  6.258710061582e-01 
  7.117755789054e-01 
  7.124946208601e-01 
  7.540928477586e-01 
  7.956910746571e-01 
  6.296335707617e-01 
  6.712317976602e-01 
  5.467725206632e-01 
  7.138833036823e-01 
  6.900767931509e-01 
  6.662702826196e-01 
  7.273383926570e-01 
  7.035318821257e-01 
  7.407934816318e-01 
  5.953413697468e-01 
  6.509057565213e-01 
  7.064701432959e-01 
  5.678722885027e-01 
  6.234366752772e-01 
  5.404032072585e-01 
  7.350536116266e-01 
  7.193078767010e-01 
  7.035621417754e-01 
  7.710228980877e-01 
  7.552771631622e-01 
  8.069921845489e-01 
  7.390394378381e-01 
  7.121951747105e-01 
  6.853509115829e-01 
  3.836970971216e-01 
  3.568528339941e-01 
  2.835475640516e-02 
  5.782128797537e-01 
  6.896352361380e-01 
  8.010575925223e-01 
  7.072292110067e-01 
  8.186515673910e-01 
  8.362455422598e-01 
  8.005292492374e-01 
  6.869968138902e-01 
  5.734643785430e-01 
  6.716423526131e-01 
  5.581099172659e-01 
  5.427554559888e-01 
  4.708489448645e-01 
  5.175625581337e-01 
  5.642761714029e-01 
  5.460826015650e-01 
  5.927962148342e-01 
  6.213162582654e-01 
  5.634474629512e-01 
  5.167140134621e-01 
  4.699805639730e-01 
  4.818315434351e-01 
  4.350980939460e-01 
  4.002156239189e-01 
  8.176469944099e-01 
  8.128839671201e-01 
  8.081209398302e-01 
  7.579460787738e-01 
  7.531830514840e-01 
  6.982451631377e-01 
  7.386765785875e-01 
  7.667631371703e-01 
  7.948496957531e-01 
  7.256353365857e-01 
  7.537218951685e-01 
  7.125940945839e-01 
  1.150030465530e-02 
  3.573257030181e-01 
  7.031511013808e-01 
  3.733815659001e-01 
  7.192069642628e-01 
  7.352628271448e-01 