# vtk DataFile Version 2
NuDG++ 2D simulation
ASCII
DATASET UNSTRUCTURED_GRID

POINTS 2244 double
 -1.656250060000e-01  -2.000000030000e-01  0.0
 -1.828125045000e-01  -1.772221997500e-01  0.0
 -2.000000030000e-01  -1.544443965000e-01  0.0
 -1.828125045000e-01  -2.000000030000e-01  0.0
 -2.000000030000e-01  -1.772221997500e-01  0.0
 -2.000000030000e-01  -2.000000030000e-01  0.0
 -6.428571790000e-02  -1.700000018000e-01  0.0
 -8.058035746000e-02  -1.850000024000e-01  0.0
 -9.687499702000e-02  -2.000000030000e-01  0.0
 -6.339285895000e-02  -1.850000024000e-01  0.0
 -7.968749851000e-02  -2.000000030000e-01  0.0
 -6.250000000000e-02  -2.000000030000e-01  0.0
 -2.000000030000e-01  -1.544443965000e-01  0.0
 -1.750000045000e-01  -1.379364989500e-01  0.0
 -1.500000060000e-01  -1.214286014000e-01  0.0
 -2.000000030000e-01  -1.316666491500e-01  0.0
 -1.750000045000e-01  -1.151587516000e-01  0.0
 -2.000000030000e-01  -1.088889018000e-01  0.0
 -1.500000060000e-01  -1.214286014000e-01  0.0
 -1.750000045000e-01  -1.379364989500e-01  0.0
 -2.000000030000e-01  -1.544443965000e-01  0.0
 -1.500000060000e-01  -1.457143016000e-01  0.0
 -1.750000045000e-01  -1.622221991500e-01  0.0
 -1.500000060000e-01  -1.700000018000e-01  0.0
 -1.500000060000e-01  -7.285714149000e-02  0.0
 -1.750000045000e-01  -9.087302164500e-02  0.0
 -2.000000030000e-01  -1.088889018000e-01  0.0
 -1.500000060000e-01  -9.714287144500e-02  0.0
 -1.750000045000e-01  -1.151587516000e-01  0.0
 -1.500000060000e-01  -1.214286014000e-01  0.0
  1.832975030000e+00  -4.625000060000e-02  0.0
  1.853987515000e+00  -1.231250018000e-01  0.0
  1.875000000000e+00  -2.000000030000e-01  0.0
  1.916487515000e+00  -7.187499851000e-02  0.0
  1.937500000000e+00  -1.487499997100e-01  0.0
  2.000000000000e+00  -9.749999642000e-02  0.0
 -1.500000060000e-01  -1.700000018000e-01  0.0
 -1.360000037000e-01  -1.525000036000e-01  0.0
 -1.220000014000e-01  -1.350000054000e-01  0.0
 -1.500000060000e-01  -1.457143016000e-01  0.0
 -1.360000037000e-01  -1.282143034000e-01  0.0
 -1.500000060000e-01  -1.214286014000e-01  0.0
  2.849999964000e-01  -2.333333530000e-02  0.0
  2.837499976000e-01  -8.166666795000e-02  0.0
  2.824999988000e-01  -1.400000006000e-01  0.0
  3.174999952000e-01  -4.666666780000e-02  0.0
  3.162499964000e-01  -1.050000004500e-01  0.0
  3.499999940000e-01  -7.000000030000e-02  0.0
 -1.071429029000e-01  -1.700000018000e-01  0.0
 -8.571431040000e-02  -1.700000018000e-01  0.0
 -6.428571790000e-02  -1.700000018000e-01  0.0
 -9.857145324000e-02  -1.525000036000e-01  0.0
 -7.714286074000e-02  -1.525000036000e-01  0.0
 -9.000000358000e-02  -1.350000054000e-01  0.0
 -1.312499940000e-01  -2.000000030000e-01  0.0
 -1.191964484500e-01  -1.850000024000e-01  0.0
 -1.071429029000e-01  -1.700000018000e-01  0.0
 -1.406250000000e-01  -1.850000024000e-01  0.0
 -1.285714544500e-01  -1.700000018000e-01  0.0
 -1.500000060000e-01  -1.700000018000e-01  0.0
 -1.220000014000e-01  -1.350000054000e-01  0.0
 -1.060000024900e-01  -1.350000054000e-01  0.0
 -9.000000358000e-02  -1.350000054000e-01  0.0
 -1.185000017500e-01  -1.175000034500e-01  0.0
 -1.025000028400e-01  -1.175000034500e-01  0.0
 -1.150000021000e-01  -1.000000015000e-01  0.0
 -9.000000358000e-02  -1.350000054000e-01  0.0
 -1.060000024900e-01  -1.350000054000e-01  0.0
 -1.220000014000e-01  -1.350000054000e-01  0.0
 -9.857145324000e-02  -1.525000036000e-01  0.0
 -1.145714521500e-01  -1.525000036000e-01  0.0
 -1.071429029000e-01  -1.700000018000e-01  0.0
 -7.778175920000e-02  -9.192386270000e-02  0.0
 -9.639088065000e-02  -9.596193210000e-02  0.0
 -1.150000021000e-01  -1.000000015000e-01  0.0
 -8.389088139000e-02  -1.134619340500e-01  0.0
 -1.025000028400e-01  -1.175000034500e-01  0.0
 -9.000000358000e-02  -1.350000054000e-01  0.0
 -1.220000014000e-01  -1.350000054000e-01  0.0
 -1.185000017500e-01  -1.175000034500e-01  0.0
 -1.150000021000e-01  -1.000000015000e-01  0.0
 -1.360000037000e-01  -1.282143034000e-01  0.0
 -1.325000040500e-01  -1.107143014500e-01  0.0
 -1.500000060000e-01  -1.214286014000e-01  0.0
 -7.778175920000e-02  -9.192386270000e-02  0.0
 -8.389088139000e-02  -1.134619340500e-01  0.0
 -9.000000358000e-02  -1.350000054000e-01  0.0
 -6.639088876500e-02  -1.022535823500e-01  0.0
 -7.250001095500e-02  -1.237916537000e-01  0.0
 -5.500001833000e-02  -1.125833020000e-01  0.0
 -1.071429029000e-01  -1.700000018000e-01  0.0
 -1.145714521500e-01  -1.525000036000e-01  0.0
 -1.220000014000e-01  -1.350000054000e-01  0.0
 -1.285714544500e-01  -1.700000018000e-01  0.0
 -1.360000037000e-01  -1.525000036000e-01  0.0
 -1.500000060000e-01  -1.700000018000e-01  0.0
  6.250000093000e-03  -2.000000030000e-01  0.0
  4.062500153650e-02  -2.000000030000e-01  0.0
  7.500000298000e-02  -2.000000030000e-01  0.0
  1.383928512150e-02  -1.850000024000e-01  0.0
  4.821428656500e-02  -1.850000024000e-01  0.0
  2.142857015000e-02  -1.700000018000e-01  0.0
 -1.500000060000e-01  -7.285714149000e-02  0.0
 -1.500000060000e-01  -9.714287144500e-02  0.0
 -1.500000060000e-01  -1.214286014000e-01  0.0
 -1.325000040500e-01  -8.642857149500e-02  0.0
 -1.325000040500e-01  -1.107143014500e-01  0.0
 -1.150000021000e-01  -1.000000015000e-01  0.0
 -2.000000030000e-01  -6.333333254000e-02  0.0
 -1.750000045000e-01  -6.809523701500e-02  0.0
 -1.500000060000e-01  -7.285714149000e-02  0.0
 -1.750000045000e-01  -4.380952660000e-02  0.0
 -1.500000060000e-01  -4.857143107500e-02  0.0
 -1.500000060000e-01  -2.428572066000e-02  0.0
 -2.000000030000e-01  -6.333333254000e-02  0.0
 -2.000000030000e-01  -8.611111717000e-02  0.0
 -2.000000030000e-01  -1.088889018000e-01  0.0
 -1.750000045000e-01  -6.809523701500e-02  0.0
 -1.750000045000e-01  -9.087302164500e-02  0.0
 -1.500000060000e-01  -7.285714149000e-02  0.0
 -2.000000030000e-01  -6.333333254000e-02  0.0
 -1.750000045000e-01  -4.380952660000e-02  0.0
 -1.500000060000e-01  -2.428572066000e-02  0.0
 -2.000000030000e-01  -4.055555630500e-02  0.0
 -1.750000045000e-01  -2.103175036500e-02  0.0
 -2.000000030000e-01  -1.777778007000e-02  0.0
 -1.500000060000e-01  -2.428572066000e-02  0.0
 -1.500000060000e-01  -4.857143107500e-02  0.0
 -1.500000060000e-01  -7.285714149000e-02  0.0
 -1.281259023000e-01  -2.896608505500e-02  0.0
 -1.281259023000e-01  -5.325179547000e-02  0.0
 -1.062517986000e-01  -3.364644945000e-02  0.0
 -1.099999994000e-01   1.996667010000e-08  0.0
 -1.300000027000e-01  -1.214285034666e-02  0.0
 -1.500000060000e-01  -2.428572066000e-02  0.0
 -1.081258990000e-01  -1.682321474166e-02  0.0
 -1.281259023000e-01  -2.896608505500e-02  0.0
 -1.062517986000e-01  -3.364644945000e-02  0.0
 -1.500000060000e-01  -2.428572066000e-02  0.0
 -1.500000060000e-01   0.000000000000e+00  0.0
 -1.500000060000e-01   2.428572066000e-02  0.0
 -1.750000045000e-01  -2.103175036500e-02  0.0
 -1.750000045000e-01   3.253970295000e-03  0.0
 -2.000000030000e-01  -1.777778007000e-02  0.0
 -1.500000060000e-01  -7.285714149000e-02  0.0
 -1.226314045700e-01  -6.892856210000e-02  0.0
 -9.526280314000e-02  -6.499998271000e-02  0.0
 -1.281259023000e-01  -5.325179547000e-02  0.0
 -1.007573008700e-01  -4.932321608000e-02  0.0
 -1.062517986000e-01  -3.364644945000e-02  0.0
  3.499999940000e-01   1.400000006000e-01  0.0
  4.021931737500e-01   1.224999986500e-01  0.0
  4.543863535000e-01   1.049999967000e-01  0.0
  4.187500029500e-01   1.749999970000e-01  0.0
  4.709431827000e-01   1.574999950500e-01  0.0
  4.875000119000e-01   2.099999934000e-01  0.0
 -7.101409137000e-02  -4.349999130000e-02  0.0
 -8.313844725500e-02  -5.424998700500e-02  0.0
 -9.526280314000e-02  -6.499998271000e-02  0.0
 -6.449843011500e-02  -5.250913650000e-02  0.0
 -7.662278600000e-02  -6.325913220500e-02  0.0
 -5.798276886000e-02  -6.151828170000e-02  0.0
 -9.526280314000e-02  -6.499998271000e-02  0.0
 -1.226314045700e-01  -6.892856210000e-02  0.0
 -1.500000060000e-01  -7.285714149000e-02  0.0
 -1.051314026200e-01  -8.249999210500e-02  0.0
 -1.325000040500e-01  -8.642857149500e-02  0.0
 -1.150000021000e-01  -1.000000015000e-01  0.0
 -6.181925908000e-02  -1.656441018000e-02  0.0
 -7.051259093000e-02  -1.954082492500e-02  0.0
 -7.920592278000e-02  -2.251723967000e-02  0.0
 -5.862244405000e-02  -2.428220026000e-02  0.0
 -6.731577590000e-02  -2.725861500500e-02  0.0
 -5.542562902000e-02  -3.199999034000e-02  0.0
 -7.920592278000e-02  -2.251723967000e-02  0.0
 -9.272886069000e-02  -2.808184456000e-02  0.0
 -1.062517986000e-01  -3.364644945000e-02  0.0
 -7.511000707500e-02  -3.300861548500e-02  0.0
 -8.863294498500e-02  -3.857322037500e-02  0.0
 -7.101409137000e-02  -4.349999130000e-02  0.0
 -7.101409137000e-02  -4.349999130000e-02  0.0
 -6.321986019500e-02  -3.774999082000e-02  0.0
 -5.542562902000e-02  -3.199999034000e-02  0.0
 -7.511000707500e-02  -3.300861548500e-02  0.0
 -6.731577590000e-02  -2.725861500500e-02  0.0
 -7.920592278000e-02  -2.251723967000e-02  0.0
 -7.920592278000e-02  -2.251723967000e-02  0.0
 -9.460296109000e-02  -1.125860985166e-02  0.0
 -1.099999994000e-01   1.996667010000e-08  0.0
 -9.272886069000e-02  -2.808184456000e-02  0.0
 -1.081258990000e-01  -1.682321474166e-02  0.0
 -1.062517986000e-01  -3.364644945000e-02  0.0
 -7.778175920000e-02  -9.192386270000e-02  0.0
 -6.788226403000e-02  -7.672107220000e-02  0.0
 -5.798276886000e-02  -6.151828170000e-02  0.0
 -8.652228117000e-02  -7.846192270500e-02  0.0
 -7.662278600000e-02  -6.325913220500e-02  0.0
 -9.526280314000e-02  -6.499998271000e-02  0.0
 -7.101409137000e-02  -4.349999130000e-02  0.0
 -8.863294498500e-02  -3.857322037500e-02  0.0
 -1.062517986000e-01  -3.364644945000e-02  0.0
 -8.313844725500e-02  -5.424998700500e-02  0.0
 -1.007573008700e-01  -4.932321608000e-02  0.0
 -9.526280314000e-02  -6.499998271000e-02  0.0
 -7.778175920000e-02  -9.192386270000e-02  0.0
 -8.652228117000e-02  -7.846192270500e-02  0.0
 -9.526280314000e-02  -6.499998271000e-02  0.0
 -9.639088065000e-02  -9.596193210000e-02  0.0
 -1.051314026200e-01  -8.249999210500e-02  0.0
 -1.150000021000e-01  -1.000000015000e-01  0.0
[...]
POINT_DATA 2244
SCALARS field1 double 1
LOOKUP_TABLE default
  2.098895775166e-03 
  3.986924459160e-02 
  7.763959340803e-02 
  1.315185791806e-03 
  3.908553460824e-02 
  5.314758084457e-04 
  1.625244318585e-01 
  8.203220921612e-02 
  1.539986573752e-03 
  8.194621761103e-02 
  1.453994968665e-03 
  1.368003363579e-03 
  7.619410829849e-02 
  9.860826992678e-02 
  1.210224315551e-01 
  1.055529090983e-01 
  1.279670707266e-01 
  1.349117098981e-01 
  1.224931499349e-01 
  9.854378700517e-02 
  7.459442407548e-02 
  1.021732970736e-01 
  7.822393414389e-02 
  8.185344421230e-02 
  1.637652964884e-01 
  1.493799470838e-01 
  1.349945976791e-01 
  1.434872603151e-01 
  1.291019109105e-01 
  1.232092241418e-01 
  1.853275275606e-01 
  1.152270147691e-01 
  4.512650197755e-02 
  1.754376296220e-01 
  1.053371168305e-01 
  1.655477316835e-01 
  8.376961216005e-02 
  1.090406598963e-01 
  1.343117076325e-01 
  1.036029473615e-01 
  1.288739950978e-01 
  1.234362825630e-01 
  1.440723939589e-01 
  1.548019993361e-01 
  1.655316047133e-01 
  1.485020916176e-01 
  1.592316969948e-01 
  1.529317892763e-01 
  1.318581825112e-01 
  1.455488984761e-01 
  1.592396144410e-01 
  1.388221100140e-01 
  1.525128259789e-01 
  1.457860375167e-01 
  3.103458105568e-03 
  6.809326828255e-02 
  1.330830784595e-01 
  4.316287213423e-02 
  1.081526823112e-01 
  8.322228616289e-02 
  1.307210215080e-01 
  1.363699231698e-01 
  1.420188248317e-01 
  1.375638664895e-01 
  1.432127681514e-01 
  1.444067114710e-01 
  1.434687264194e-01 
  1.372661310519e-01 
  1.310635356845e-01 
  1.379565369380e-01 
  1.317539415705e-01 
  1.324443474566e-01 
  1.667860300388e-01 
  1.553387561743e-01 
  1.438914823098e-01 
  1.550412538553e-01 
  1.435939799908e-01 
  1.432964776718e-01 
  1.313101210739e-01 
  1.387344936527e-01 
  1.461588662314e-01 
  1.284167753148e-01 
  1.358411478936e-01 
  1.255234295557e-01 
  1.670796877931e-01 
  1.561793283791e-01 
  1.452789689650e-01 
  1.740189175606e-01 
  1.631185581466e-01 
  1.809581473281e-01 
  1.315850722202e-01 
  1.324009734031e-01 
  1.332168745860e-01 
  1.079016516074e-01 
  1.087175527902e-01 
  8.421823099452e-02 
  1.515713792622e-03 
  2.125710088885e-03 
  2.735706385148e-03 
  9.397123739254e-02 
  9.458123368880e-02 
  1.864267609925e-01 
  1.630695372395e-01 
  1.440914645396e-01 
  1.251133918396e-01 
  1.552500586964e-01 
  1.362719859964e-01 
  1.474305801532e-01 
  1.762483184958e-01 
  1.690988357015e-01 
  1.619493529071e-01 
  1.777268747551e-01 
  1.705773919607e-01 
  1.792054310143e-01 
  1.750578579248e-01 
  1.554908930531e-01 
  1.359239281815e-01 
  1.691105584729e-01 
  1.495435936012e-01 
  1.631632590210e-01 
  1.761752618066e-01 
  1.782235060587e-01 
  1.802717503108e-01 
  1.858844220810e-01 
  1.879326663331e-01 
  1.955935823553e-01 
  1.771690587789e-01 
  1.700859528041e-01 
  1.630028468293e-01 
  1.568552647628e-01 
  1.497721587880e-01 
  1.365414707466e-01 
  1.182765074324e-01 
  1.472155555441e-01 
  1.761546036559e-01 
  1.274800512326e-01 
  1.564190993444e-01 
  1.366835950329e-01 
  1.763617666818e-01 
  1.766435171817e-01 
  1.769252676816e-01 
  1.869585051640e-01 
  1.872402556639e-01 
  1.975552436461e-01 
  1.623980162685e-01 
  1.553750819810e-01 
  1.483521476935e-01 
  1.493314845770e-01 
  1.423085502895e-01 
  1.362649528855e-01 
  1.704723091893e-01 
  1.759090413337e-01 
  1.813457734781e-01 
  1.038338740637e-01 
  1.092706062081e-01 
  3.719543893806e-02 
  1.195764190552e-01 
  1.353082641905e-01 
  1.510401093257e-01 
  1.400600056312e-01 
  1.557918507665e-01 
  1.605435922073e-01 
  1.493344402867e-01 
  1.557777917254e-01 
  1.622211431640e-01 
  1.485292435822e-01 
  1.549725950209e-01 
  1.477240468778e-01 
  3.956637561307e-02 
  6.616165386026e-02 
  9.275693210745e-02 
  5.287798733946e-02 
  7.947326558665e-02 
  6.618959906585e-02 
  9.176051965540e-02 
  1.137028063392e-01 
  1.356450930229e-01 
  1.054445007600e-01 
  1.273867874437e-01 
  1.191284818645e-01 
  1.190696663912e-01 
  9.317463044583e-02 
  6.727959450042e-02 
  1.054910918875e-01 
  7.959605594209e-02 
  9.191251738377e-02 
  9.141193741454e-02 
  1.047559857066e-01 
  1.181000339986e-01 
  1.137940129654e-01 
  1.271380612574e-01 
  1.361760885162e-01 
  1.674255152332e-01 
  1.643722222179e-01 
  1.613189292025e-01 
  1.591111093617e-01 
  1.560578163463e-01 
  1.507967034901e-01 
  1.200326530287e-01 
  1.276465689596e-01 
  1.352604848906e-01 
  1.353139436621e-01 
  1.429278595930e-01 
  1.505952342955e-01 
  1.659760970287e-01 
  1.582975118323e-01 
  1.506189266358e-01 
  1.559239467705e-01 
  1.482453615741e-01 
  1.458717965123e-01 
  9.218154209596e-02 
  6.586039749198e-02 
  3.953925288800e-02 
  8.280113979546e-02 
  5.647999519148e-02 
  7.342073749496e-02 
  1.789827667236e-01 
  1.628271643254e-01 
  1.466715619271e-01 
  1.691633873932e-01 
  1.530077849949e-01 
  1.593440080628e-01 
  1.660623119100e-01 
  1.698363694487e-01 
  1.736104269873e-01 
  1.511275794677e-01 
  1.549016370063e-01 
  1.361928470253e-01 
  1.862541293830e-01 
  1.827521383191e-01 
  1.792501472551e-01 
  1.916213065507e-01 
  1.881193154867e-01 
  1.969884837184e-01 
  1.839195151315e-01 
  1.805828652201e-01 
  1.772462153087e-01 
  1.718026459569e-01 
  1.684659960455e-01 
  1.596857767823e-01 
  1.666586686988e-01 
  1.813537963442e-01 
  1.960489239896e-01 
  1.638948628958e-01 
  1.785899905411e-01 
  1.611310570927e-01 
  1.967030771859e-01 
  1.816720077884e-01 
  1.666409383909e-01 
  1.882416764659e-01 
  1.732106070684e-01 
  1.797802757459e-01 
  2.265872587785e-01 
  2.126649865843e-01 
  1.987427143901e-01 
  2.020334604744e-01 
  1.881111882802e-01 
  1.774796621703e-01 
  1.641716703875e-01 
  1.622736182877e-01 
  1.603755661880e-01 
  1.815424106505e-01 
  1.796443585508e-01 
  1.989131509135e-01 
  1.762448419680e-01 
  1.805342982910e-01 
  1.848237546140e-01 
  2.015548949334e-01 
  2.058443512564e-01 
  2.268649478989e-01 
  1.854238816091e-01 
  1.726820008306e-01 
  1.599401200520e-01 
  1.820740739609e-01 
  1.693321931823e-01 
  1.787242663126e-01 
  2.387795590328e-01 
  2.335193630575e-01 
  2.282591670822e-01 
  2.123233066013e-01 
  2.070631106260e-01 
  1.858670541699e-01 
  1.135174223512e-03 
  9.991409641516e-02 
  1.986930186068e-01 
  1.008045898513e-03 
  9.978696809016e-02 
  8.809175735142e-04 
  2.312009111506e-01 
  2.145357035565e-01 
  1.978704959623e-01 
  2.100018678483e-01 
  1.933366602541e-01 
  1.888028245460e-01 
  1.987475685438e-01 
  2.147079483670e-01 
  2.306683281902e-01 
  2.183645554725e-01 
  2.343249352958e-01 
  2.379815424013e-01 
  1.880095699707e-01 
  1.930013160062e-01 
  1.979930620417e-01 
  9.562252968572e-02 
  1.006142757212e-01 
  3.235489400739e-03 
  2.288048568918e-01 
  2.100052945165e-01 
  1.912057321411e-01 
  2.145569898302e-01 
  1.957574274548e-01 
  2.003091227685e-01 
  2.281952306828e-01 
  2.128782053566e-01 
  1.975611800304e-01 
  2.327272411858e-01 
  2.174102158596e-01 
  2.372592516887e-01 
  2.372411222858e-01 
  2.119924257319e-01 
  1.867437291781e-01 
  2.158174064886e-01 
  1.905687099347e-01 
  1.943936906914e-01 
  1.789913546593e-01 
  1.794943762878e-01 
  1.799973979162e-01 
  1.878957951269e-01 
  1.883988167554e-01 
  1.968002355945e-01 
  1.634009663607e-01 
  1.823215567084e-01 
  2.012421470560e-01 
  1.768800546840e-01 
  1.958006450316e-01 
  1.903591430073e-01 
 -1.001151895834e-03 
  3.403326950951e-02 
  6.906769091485e-02 
  1.278773743770e-03 
  3.631319514911e-02 
  3.558699383375e-03 
  6.822592990362e-02 
  9.311352963034e-02 
  1.180011293571e-01 
  9.467442542564e-02 
  1.195620251524e-01 
  1.211229209477e-01 
  1.556469043021e-01 
  8.101103060608e-02 
  6.375156910087e-03 
  7.728373580833e-02 
  2.647862112341e-03 
 -1.079432685404e-03 
 -1.754648348173e-03 
  5.876515893139e-03 
  1.350768013445e-02 
  1.864975019405e-02 
  2.628091443536e-02 
  3.905414873627e-02 
  3.605374068952e-04 
 -1.212611826435e-03 
 -2.785761059764e-03 
  3.245226041720e-02 
  3.087911118387e-02 
  6.454398342750e-02 
  1.443403121186e-01 
  7.355606297147e-02 
  2.771813824299e-03 
  1.183499564128e-01 
  4.756570726565e-02 
  9.235960070700e-02 
  6.879452935660e-02 
  9.603448029533e-02 
  1.232744312341e-01 
  3.673772894646e-02 
  6.397767988518e-02 
  4.680928536309e-03 
 -3.313675496580e-03 
  1.792633413796e-02 
  3.916634377250e-02 
  3.059631615106e-02 
  5.183632578560e-02 
  6.450630779870e-02 
  1.478032785725e-03 
  1.562794641856e-03 
  1.647556497987e-03 
  9.580169990735e-02 
  9.588646176348e-02 
  1.901253670290e-01 
  2.020262138261e-03 
  1.011383343071e-01 
  2.002564064760e-01 
  1.945256356180e-03 
  1.010633285251e-01 
  1.870250574100e-03 
  1.889360897185e-01 
  9.855002336338e-02 
  8.163957008243e-03 
  1.774343701816e-01 
  8.704830382649e-02 
  1.659326506447e-01 
  9.152412587535e-04 
  6.416549781763e-02 
  1.274157543765e-01 
  2.354087752290e-03 
  6.560434431117e-02 
  3.792934245827e-03 
  3.716357812235e-03 
  8.362341203253e-02 
  1.635304662528e-01 
  9.625840858839e-02 
  1.761654628087e-01 
  1.888004593646e-01 
  1.797730609650e-01 
  9.326717701047e-02 
  6.761293055903e-03 
  1.803893432072e-01 
  9.388345925259e-02 
  1.810056254493e-01 
  1.358418551443e-01 
  6.859087963182e-02 
  1.339904119359e-03 
  6.921563701374e-02 
  1.964661501277e-03 
  2.589418883196e-03 
  6.179241392278e-03 
  6.592513530684e-02 
  1.256710292214e-01 
  8.439255435106e-02 
  1.441384482656e-01 
  1.626058673098e-01 
  1.229757487603e-01 
  1.420503891024e-01 
  1.611250294445e-01 
  1.431357373648e-01 
  1.622103777068e-01 
  1.632957259692e-01 
  1.628567615163e-01 
  8.471575217952e-02 
  6.574742842725e-03 
  1.701112519964e-01 
  9.197024265963e-02 
  1.773657424765e-01 
  2.360749295818e-01 
  2.151866647872e-01 
  1.942983999925e-01 
  2.141309246992e-01 
  1.932426599045e-01 
  1.921869198165e-01 
  1.214775384758e-01 
  1.196227741332e-01 
  1.177680097907e-01 
  1.413842264902e-01 
  1.395294621476e-01 
  1.612909145045e-01 
  9.441899682963e-04 
  2.520807281197e-03 
  4.097424594099e-03 
  8.337501017430e-02 
  8.495162748720e-02 
  1.658058303803e-01 
  1.204220279290e-02 
  5.637267306124e-03 
 -7.676681806489e-04 
  5.362200625016e-03 
 -1.042734861757e-03 
 -1.317801542864e-03 
  1.735776652873e-01 
  1.743605953636e-01 
  1.751435254399e-01 
  1.547551055580e-01 
  1.555380356343e-01 
  1.359325458288e-01 
  1.790043115377e-01 
  1.869182289111e-01 
  1.948321462846e-01 
  1.878112740102e-01 
  1.957251913836e-01 
  1.966182364827e-01 
  1.939024897354e-01 
  1.842452042293e-01 
  1.745879187231e-01 
  1.847640433787e-01 
  1.751067578726e-01 
  1.756255970221e-01 
  1.731602861831e-01 
  1.837460754205e-01 
  1.943318646578e-01 
  1.746087474759e-01 
  1.851945367133e-01 
  1.760572087687e-01 
  1.753763305396e-01 
  1.755417404135e-01 
  1.757071502874e-01 
  1.558021813718e-01 
  1.559675912457e-01 
  1.362280322041e-01 
  2.324970129631e-02 
  1.142080219914e-02 
 -4.080968980292e-04 
  1.011168068038e-01 
  8.928790770667e-02 
  1.789839123114e-01 
  1.750701980412e-01 
  1.469454629571e-01 
  1.188207278730e-01 
  1.554883583914e-01 
  1.273636233073e-01 
  1.359065187415e-01 
  1.748397016757e-01 
  1.750291362828e-01 
  1.752185708899e-01 
  1.463991537961e-01 
  1.465885884032e-01 
  1.179586059164e-01 
  8.998128013666e-02 
  1.125785964347e-01 
  1.351759127328e-01 
  1.043944736809e-01 
  1.269917899790e-01 
  1.188076672251e-01 
  1.269454897049e-01 
  1.082776854127e-01 
  8.960988112053e-02 
  1.006060602691e-01 
  8.193825597696e-02 
  7.426663083338e-02 
  1.337570510231e-01 
  1.294956448270e-01 
  1.252342386308e-01 
  1.399535513701e-01 
  1.356921451739e-01 
  1.461500517171e-01 
  1.248231035110e-01 
  1.293579221734e-01 
  1.338927408358e-01 
  1.075760859386e-01 
  1.121109046010e-01 
  9.032906836617e-02 
  1.654253052893e-01 
  1.556374583714e-01 
  1.458496114534e-01 
  1.662283244351e-01 
  1.564404775172e-01 
  1.670313435810e-01 
  1.354477609114e-01 
  1.402691864248e-01 
  1.450906119382e-01 
  1.544477220384e-01 
  1.592691475518e-01 
  1.734476831654e-01 
  9.001590565178e-02 
  8.154675736244e-02 
  7.307760907310e-02 
  6.427897599037e-02 
  5.580982770104e-02 
  3.854204632897e-02 
  8.963443602032e-02 
  1.043135314558e-01 
  1.189926268913e-01 
  8.172717165812e-02 
  9.640626709360e-02 
  7.381990729592e-02 
  1.184711650741e-01 
  1.048013017849e-01 
  9.113143849574e-02 
  9.627352765351e-02 
  8.260366436435e-02 
  7.407589023295e-02 
  1.732475226423e-01 
  1.595893005834e-01 
  1.459310785245e-01 
  1.634531531226e-01 
  1.497949310637e-01 
  1.536587836029e-01 
  1.346991058206e-01 
  1.304726192412e-01 
  1.262461326619e-01 
  1.055219511258e-01 
  1.012954645464e-01 
  7.634479643091e-02 
  1.352536414504e-01 
  1.554533337851e-01 
  1.756530261198e-01 
  1.316303260383e-01 
  1.518300183729e-01 
  1.280070106261e-01 
  7.546515500080e-02 
  8.370617520222e-02 
  9.194719540364e-02 
  3.782075762328e-02 
  4.606177782470e-02 
  1.763602457591e-04 
  9.374244142830e-02 
  8.435701381912e-02 
  7.497158620994e-02 
  1.108862810447e-01 
  1.015008534355e-01 
  1.280301206611e-01 
  1.515505225345e-01 
  7.846672241518e-02 
  5.382922295899e-03 
  7.568456139181e-02 
  2.600761272533e-03 
 -1.813997508327e-04 
  1.633196426061e-02 
  8.934333083521e-03 
  1.536701906429e-03 
  9.887504665446e-02 
  9.147741547737e-02 
  1.814181290483e-01 
  1.298338157430e-01 
  1.335730983777e-01 
  1.373123810123e-01 
  1.121257160887e-01 
  1.158649987233e-01 
  9.441761643426e-02 
  1.657745560884e-01 
  8.171018795036e-02 
 -2.354180187714e-03 
  9.203151092104e-02 
  7.967142782968e-03 
  1.828846575365e-02 
  1.498017084669e-01 
  1.568333934603e-01 
  1.638650784536e-01 
  1.495322039959e-01 
  1.565638889892e-01 
  1.492626995248e-01 
  1.634550675872e-01 
  1.576766606195e-01 
  1.518982536517e-01 
  1.552595839633e-01 
  1.494811769955e-01 
  1.470641003393e-01 
  1.329507289765e-01 
  1.422589481844e-01 
  1.515671673922e-01 
  1.391091140101e-01 
  1.484173332180e-01 
  1.452674990437e-01 
  1.484093094931e-01 
  1.414111543856e-01 
  1.344129992782e-01 
  1.494178488524e-01 
  1.424196937449e-01 
  1.504263882117e-01 
  1.476730517738e-01 
  1.505026979428e-01 
  1.533323441118e-01 
  1.589572542711e-01 
  1.617869004401e-01 
  1.702414567684e-01 
  1.355998659578e-01 
  1.388996943245e-01 
  1.421995226913e-01 
  1.146527730953e-01 
  1.179526014621e-01 
  9.370568023290e-02 
  1.640595890264e-01 
  1.722406768734e-01 
  1.804217647204e-01 
  1.576652373032e-01 
  1.658463251502e-01 
  1.512708855801e-01 
  1.525804961998e-01 
  1.439228156289e-01 
  1.352651350580e-01 
  1.420978134843e-01 
  1.334401329134e-01 
  1.316151307688e-01 
  1.742364816544e-01 
  1.639720362461e-01 
  1.537075908377e-01 
  1.525025657846e-01 
  1.422381203763e-01 
  1.307686499149e-01 
  1.504647453400e-01 
  1.596274305107e-01 
  1.687901156813e-01 
  7.975795020372e-02 
  8.892063537437e-02 
  9.051155067416e-03 
  1.454543247613e-01 
  1.358279696180e-01 
  1.262016144747e-01 
  1.560653493935e-01 
  1.464389942502e-01 
  1.666763740256e-01 
  4.977018596412e-02 
  1.177843384840e-01 
  1.857984910039e-01 
  1.024337418528e-01 
  1.704478943727e-01 
  1.550972977415e-01 
  1.301836997879e-02 
  6.157459706275e-03 
 -7.034505662402e-04 
  2.603254507021e-02 
  1.917163479769e-02 
  3.904672016162e-02 
  1.188662714404e-02 
  5.204557727824e-03 
 -1.477511688390e-03 
  5.764385153469e-03 
 -9.176842627453e-04 
 -3.578568371003e-04 
  3.958133812080e-02 
  2.022292666048e-02 
  8.645152001595e-04 
  5.597833006334e-02 
  3.661991860301e-02 
  7.237532200587e-02 
  1.118985369952e-01 
  9.255408933757e-02 
  7.320964167993e-02 
  5.549362404714e-02 
  3.614917638950e-02 
 -9.112889009249e-04 
  1.150033101312e-01 
  1.415064625077e-01 
  1.680096148843e-01 
  1.212134199066e-01 
  1.477165722832e-01 
  1.274235296821e-01 
  1.137358951725e-01 
  1.210600504521e-01 
  1.283842057316e-01 
  9.375821057278e-02 
  1.010823658524e-01 
  7.378052597308e-02 
  8.867942194174e-04 
  2.027680073935e-02 
  3.966680725929e-02 
  1.174523242051e-04 
  1.950745884414e-02 
 -6.518895710071e-04 
  9.017274611087e-02 
  6.460626054830e-02 
  3.903977498573e-02 
  8.175097906068e-02 
  5.618449349811e-02 
  7.332921201049e-02 
 -7.202720096396e-04 
  2.868692493137e-04 
  1.294010508267e-03 
  5.574727263331e-02 
  5.675441389226e-02 
  1.122148172763e-01 
  1.837708355224e-01 
  9.491092625981e-02 
  6.051016997205e-03 
  1.750847300104e-01 
  8.622482074782e-02 
  1.663986244984e-01 
  1.600639088616e-01 
  1.210419902435e-01 
  8.202007162536e-02 
  1.612622252913e-01 
  1.222403066731e-01 
  1.624605417209e-01 
  7.620504028372e-02 
  3.920550062687e-02 
  2.205960970017e-03 
  7.810880797606e-02 
  4.110926831921e-02 
  8.001257566841e-02 
  1.693300807931e-01 
  8.513845861214e-02 
  9.468364311703e-04 
  8.670368817093e-02 
  2.512065989958e-03 
  4.077295548745e-03 
  1.648245301289e-01 
  8.186280995482e-02 
 -1.098910219292e-03 
  8.375408426105e-02 
  7.923640869372e-04 
  2.683638393166e-03 
  1.562337422596e-01 
  8.059508151606e-02 
  4.956420772497e-03 
  1.453642322452e-01 
  6.972557150159e-02 
  1.344947222307e-01 
  1.120801024247e-01 
  5.604128959367e-02 
  2.476762679356e-06 
  1.370195180334e-01 
  8.098070520242e-02 
  1.619589336422e-01 
  1.451078323094e-01 
  1.535005404220e-01 
  1.618932485345e-01 
  1.532790335747e-01 
  1.616717416873e-01 
  1.614502348400e-01 
  1.952587196854e-01 
  9.856775222076e-02 
  1.876784756147e-03 
  9.888411352825e-02 
  2.193146063640e-03 
  2.509507371134e-03 
  1.671446550256e-01 
  1.651610069697e-01 
  1.631773589139e-01 
  1.839209555474e-01 
  1.819373074916e-01 
  2.006972560693e-01 
  1.615283541443e-01 
  1.650100039967e-01 
  1.684916538491e-01 
  1.376042541811e-01 
  1.410859040335e-01 
  1.136801542178e-01 
  1.817942305741e-01 
  1.741089696650e-01 
  1.664237087559e-01 
  1.798296826035e-01 
  1.721444216944e-01 
  1.778651346330e-01 
  1.682659955016e-01 
  1.610786675665e-01 
  1.538913396315e-01 
  1.731953770767e-01 
  1.660080491416e-01 
  1.781247586518e-01 
  1.805179844928e-01 
  1.725080379629e-01 
  1.644980914329e-01 
  1.902685566560e-01 
  1.822586101260e-01 
  2.000191288191e-01 
  2.008731454010e-01 
  2.152718010412e-01 
  2.296704566813e-01 
  1.901726187434e-01 
  2.045712743836e-01 
  1.794720920858e-01 
  2.007677566383e-01 
  1.826528663744e-01 
  1.645379761106e-01 
  1.964145352253e-01 
  1.782996449614e-01 
  1.920613138123e-01 
  1.672057605866e-01 
  1.832868512512e-01 
  1.993679419158e-01 
  1.660185488923e-01 
  1.820996395570e-01 
  1.648313371981e-01 
  1.918341077088e-01 
  1.941217993487e-01 
  1.964094909885e-01 
  2.121568900393e-01 
  2.144445816791e-01 
  2.324796723698e-01 
  1.923302431641e-01 
  1.798534975965e-01 
  1.673767520290e-01 
  9.928062440876e-02 
  8.680387884117e-02 
  6.231005653385e-03 
  1.862877258222e-01 
  2.085589754210e-01 
  2.308302250199e-01 
  2.111897987074e-01 
  2.334610483063e-01 
  2.360918715926e-01 
  2.303402558063e-01 
  2.076183322212e-01 
  1.848964086362e-01 
  2.042748299280e-01 
  1.815529063430e-01 
  1.782094040498e-01 
  1.876999287357e-01 
  1.861493263976e-01 
  1.845987240595e-01 
  1.936268155637e-01 
  1.920762132256e-01 
  1.995537023917e-01 
  1.831044387759e-01 
  1.852875196291e-01 
  1.874706004823e-01 
  1.741615141903e-01 
  1.763445950435e-01 
  1.652185896048e-01 
  2.347067717315e-01 
  2.334142811274e-01 
  2.321217905232e-01 
  2.157545051315e-01 
  2.144620145274e-01 
  1.968022385315e-01 
  1.923335913549e-01 
  2.114943558431e-01 
  2.306551203312e-01 
  1.963022251707e-01 
  2.154629896588e-01 
  2.002708589864e-01 
  5.413935304557e-03 
  1.005332123115e-01 
  1.956524893185e-01 
  9.936694601798e-02 
  1.944862230249e-01 
  1.933199567314e-01 