# vtk DataFile Version 2
NuDG++ 2D simulation
ASCII
DATASET UNSTRUCTURED_GRID

POINTS 2244 double
 -1.656250060000e-01  -2.000000030000e-01  0.0
 -1.828125045000e-01  -1.772221997500e-01  0.0
 -2.000000030000e-01  -1.544443965000e-01  0.0
 -1.828125045000e-01  -2.000000030000e-01  0.0
 -2.000000030000e-01  -1.772221997500e-01  0.0
 -2.000000030000e-01  -2.000000030000e-01  0.0
 -6.428571790000e-02  -1.700000018000e-01  0.0
 -8.058035746000e-02  -1.850000024000e-01  0.0
 -9.687499702000e-02  -2.000000030000e-01  0.0
 -6.339285895000e-02  -1.850000024000e-01  0.0
 -7.968749851000e-02  -2.000000030000e-01  0.0
 -6.250000000000e-02  -2.000000030000e-01  0.0
 -2.000000030000e-01  -1.544443965000e-01  0.0
 -1.750000045000e-01  -1.379364989500e-01  0.0
 -1.500000060000e-01  -1.214286014000e-01  0.0
 -2.000000030000e-01  -1.316666491500e-01  0.0
 -1.750000045000e-01  -1.151587516000e-01  0.0
 -2.000000030000e-01  -1.088889018000e-01  0.0
 -1.500000060000e-01  -1.214286014000e-01  0.0
 -1.750000045000e-01  -1.379364989500e-01  0.0
 -2.000000030000e-01  -1.544443965000e-01  0.0
 -1.500000060000e-01  -1.457143016000e-01  0.0
 -1.750000045000e-01  -1.622221991500e-01  0.0
 -1.500000060000e-01  -1.700000018000e-01  0.0
 -1.500000060000e-01  -7.285714149000e-02  0.0
 -1.750000045000e-01  -9.087302164500e-02  0.0
 -2.000000030000e-01  -1.088889018000e-01  0.0
 -1.500000060000e-01  -9.714287144500e-02  0.0
 -1.750000045000e-01  -1.151587516000e-01  0.0
 -1.500000060000e-01  -1.214286014000e-01  0.0
  1.832975030000e+00  -4.625000060000e-02  0.0
  1.853987515000e+00  -1.231250018000e-01  0.0
  1.875000000000e+00  -2.000000030000e-01  0.0
  1.916487515000e+00  -7.187499851000e-02  0.0
  1.937500000000e+00  -1.487499997100e-01  0.0
  2.000000000000e+00  -9.749999642000e-02  0.0
 -1.500000060000e-01  -1.700000018000e-01  0.0
 -1.360000037000e-01  -1.525000036000e-01  0.0
 -1.220000014000e-01  -1.350000054000e-01  0.0
 -1.500000060000e-01  -1.457143016000e-01  0.0
 -1.360000037000e-01  -1.282143034000e-01  0.0
 -1.500000060000e-01  -1.214286014000e-01  0.0
  2.849999964000e-01  -2.333333530000e-02  0.0
  2.837499976000e-01  -8.166666795000e-02  0.0
  2.824999988000e-01  -1.400000006000e-01  0.0
  3.174999952000e-01  -4.666666780000e-02  0.0
  3.162499964000e-01  -1.050000004500e-01  0.0
  3.499999940000e-01  -7.000000030000e-02  0.0
 -1.071429029000e-01  -1.700000018000e-01  0.0
 -8.571431040000e-02  -1.700000018000e-01  0.0
 -6.428571790000e-02  -1.700000018000e-01  0.0
 -9.857145324000e-02  -1.525000036000e-01  0.0
 -7.714286074000e-02  -1.525000036000e-01  0.0
 -9.000000358000e-02  -1.350000054000e-01  0.0
 -1.312499940000e-01  -2.000000030000e-01  0.0
 -1.191964484500e-01  -1.850000024000e-01  0.0
 -1.071429029000e-01  -1.700000018000e-01  0.0
 -1.406250000000e-01  -1.850000024000e-01  0.0
 -1.285714544500e-01  -1.700000018000e-01  0.0
 -1.500000060000e-01  -1.700000018000e-01  0.0
 -1.220000014000e-01  -1.350000054000e-01  0.0
 -1.060000024900e-01  -1.350000054000e-01  0.0
 -9.000000358000e-02  -1.350000054000e-01  0.0
 -1.185000017500e-01  -1.175000034500e-01  0.0
 -1.025000028400e-01  -1.175000034500e-01  0.0
 -1.150000021000e-01  -1.000000015000e-01  0.0
 -9.000000358000e-02  -1.350000054000e-01  0.0
 -1.060000024900e-01  -1.350000054000e-01  0.0
 -1.220000014000e-01  -1.350000054000e-01  0.0
 -9.857145324000e-02  -1.525000036000e-01  0.0
 -1.145714521500e-01  -1.525000036000e-01  0.0
 -1.071429029000e-01  -1.700000018000e-01  0.0
 -7.778175920000e-02  -9.192386270000e-02  0.0
 -9.639088065000e-02  -9.596193210000e-02  0.0
 -1.150000021000e-01  -1.000000015000e-01  0.0
 -8.389088139000e-02  -1.134619340500e-01  0.0
 -1.025000028400e-01  -1.175000034500e-01  0.0
 -9.000000358000e-02  -1.350000054000e-01  0.0
 -1.220000014000e-01  -1.350000054000e-01  0.0
 -1.185000017500e-01  -1.175000034500e-01  0.0
 -1.150000021000e-01  -1.000000015000e-01  0.0
 -1.360000037000e-01  -1.282143034000e-01  0.0
 -1.325000040500e-01  -1.107143014500e-01  0.0
 -1.500000060000e-01  -1.214286014000e-01  0.0
 -7.778175920000e-02  -9.192386270000e-02  0.0
 -8.389088139000e-02  -1.134619340500e-01  0.0
 -9.000000358000e-02  -1.350000054000e-01  0.0
 -6.639088876500e-02  -1.022535823500e-01  0.0
 -7.250001095500e-02  -1.237916537000e-01  0.0
 -5.500001833000e-02  -1.125833020000e-01  0.0
 -1.071429029000e-01  -1.700000018000e-01  0.0
 -1.145714521500e-01  -1.525000036000e-01  0.0
 -1.220000014000e-01  -1.350000054000e-01  0.0
 -1.285714544500e-01  -1.700000018000e-01  0.0
 -1.360000037000e-01  -1.525000036000e-01  0.0
 -1.500000060000e-01  -1.700000018000e-01  0.0
  6.250000093000e-03  -2.000000030000e-01  0.0
  4.062500153650e-02  -2.000000030000e-01  0.0
  7.500000298000e-02  -2.000000030000e-01  0.0
  1.383928512150e-02  -1.850000024000e-01  0.0
  4.821428656500e-02  -1.850000024000e-01  0.0
  2.142857015000e-02  -1.700000018000e-01  0.0
 -1.500000060000e-01  -7.285714149000e-02  0.0
 -1.500000060000e-01  -9.714287144500e-02  0.0
 -1.500000060000e-01  -1.214286014000e-01  0.0
 -1.325000040500e-01  -8.642857149500e-02  0.0
 -1.325000040500e-01  -1.107143014500e-01  0.0
 -1.150000021000e-01  -1.000000015000e-01  0.0
 -2.000000030000e-01  -6.333333254000e-02  0.0
 -1.750000045000e-01  -6.809523701500e-02  0.0
 -1.500000060000e-01  -7.285714149000e-02  0.0
 -1.750000045000e-01  -4.380952660000e-02  0.0
 -1.500000060000e-01  -4.857143107500e-02  0.0
 -1.500000060000e-01  -2.428572066000e-02  0.0
 -2.000000030000e-01  -6.333333254000e-02  0.0
 -2.000000030000e-01  -8.611111717000e-02  0.0
 -2.000000030000e-01  -1.088889018000e-01  0.0
 -1.750000045000e-01  -6.809523701500e-02  0.0
 -1.750000045000e-01  -9.087302164500e-02  0.0
 -1.500000060000e-01  -7.285714149000e-02  0.0
 -2.000000030000e-01  -6.333333254000e-02  0.0
 -1.750000045000e-01  -4.380952660000e-02  0.0
 -1.500000060000e-01  -2.428572066000e-02  0.0
 -2.000000030000e-01  -4.055555630500e-02  0.0
 -1.750000045000e-01  -2.103175036500e-02  0.0
 -2.000000030000e-01  -1.777778007000e-02  0.0
 -1.500000060000e-01  -2.428572066000e-02  0.0
 -1.500000060000e-01  -4.857143107500e-02  0.0
 -1.500000060000e-01  -7.285714149000e-02  0.0
 -1.281259023000e-01  -2.896608505500e-02  0.0
 -1.281259023000e-01  -5.325179547000e-02  0.0
 -1.062517986000e-01  -3.364644945000e-02  0.0
 -1.099999994000e-01   1.996667010000e-08  0.0
 -1.300000027000e-01  -1.214285034666e-02  0.0
 -1.500000060000e-01  -2.428572066000e-02  0.0
 -1.081258990000e-01  -1.682321474166e-02  0.0
 -1.281259023000e-01  -2.896608505500e-02  0.0
 -1.062517986000e-01  -3.364644945000e-02  0.0
 -1.500000060000e-01  -2.428572066000e-02  0.0
 -1.500000060000e-01   0.000000000000e+00  0.0
 -1.500000060000e-01   2.428572066000e-02  0.0
 -1.750000045000e-01  -2.103175036500e-02  0.0
 -1.750000045000e-01   3.253970295000e-03  0.0
 -2.000000030000e-01  -1.777778007000e-02  0.0
 -1.500000060000e-01  -7.285714149000e-02  0.0
 -1.226314045700e-01  -6.892856210000e-02  0.0
 -9.526280314000e-02  -6.499998271000e-02  0.0
 -1.281259023000e-01  -5.325179547000e-02  0.0
 -1.007573008700e-01  -4.932321608000e-02  0.0
 -1.062517986000e-01  -3.364644945000e-02  0.0
  3.499999940000e-01   1.400000006000e-01  0.0
  4.021931737500e-01   1.224999986500e-01  0.0
  4.543863535000e-01   1.049999967000e-01  0.0
  4.187500029500e-01   1.749999970000e-01  0.0
  4.709431827000e-01   1.574999950500e-01  0.0
  4.875000119000e-01   2.099999934000e-01  0.0
 -7.101409137000e-02  -4.349999130000e-02  0.0
 -8.313844725500e-02  -5.424998700500e-02  0.0
 -9.526280314000e-02  -6.499998271000e-02  0.0
 -6.449843011500e-02  -5.250913650000e-02  0.0
 -7.662278600000e-02  -6.325913220500e-02  0.0
 -5.798276886000e-02  -6.151828170000e-02  0.0
 -9.526280314000e-02  -6.499998271000e-02  0.0
 -1.226314045700e-01  -6.892856210000e-02  0.0
 -1.500000060000e-01  -7.285714149000e-02  0.0
 -1.051314026200e-01  -8.249999210500e-02  0.0
 -1.325000040500e-01  -8.642857149500e-02  0.0
 -1.150000021000e-01  -1.000000015000e-01  0.0
 -6.181925908000e-02  -1.656441018000e-02  0.0
 -7.051259093000e-02  -1.954082492500e-02  0.0
 -7.920592278000e-02  -2.251723967000e-02  0.0
 -5.862244405000e-02  -2.428220026000e-02  0.0
 -6.731577590000e-02  -2.725861500500e-02  0.0
 -5.542562902000e-02  -3.199999034000e-02  0.0
 -7.920592278000e-02  -2.251723967000e-02  0.0
 -9.272886069000e-02  -2.808184456000e-02  0.0
 -1.062517986000e-01  -3.364644945000e-02  0.0
 -7.511000707500e-02  -3.300861548500e-02  0.0
 -8.863294498500e-02  -3.857322037500e-02  0.0
 -7.101409137000e-02  -4.349999130000e-02  0.0
 -7.101409137000e-02  -4.349999130000e-02  0.0
 -6.321986019500e-02  -3.774999082000e-02  0.0
 -5.542562902000e-02  -3.199999034000e-02  0.0
 -7.511000707500e-02  -3.300861548500e-02  0.0
 -6.731577590000e-02  -2.725861500500e-02  0.0
 -7.920592278000e-02  -2.251723967000e-02  0.0
 -7.920592278000e-02  -2.251723967000e-02  0.0
 -9.460296109000e-02  -1.125860985166e-02  0.0
 -1.099999994000e-01   1.996667010000e-08  0.0
 -9.272886069000e-02  -2.808184456000e-02  0.0
 -1.081258990000e-01  -1.682321474166e-02  0.0
 -1.062517986000e-01  -3.364644945000e-02  0.0
 -7.778175920000e-02  -9.192386270000e-02  0.0
 -6.788226403000e-02  -7.672107220000e-02  0.0
 -5.798276886000e-02  -6.151828170000e-02  0.0
 -8.652228117000e-02  -7.846192270500e-02  0.0
 -7.662278600000e-02  -6.325913220500e-02  0.0
 -9.526280314000e-02  -6.499998271000e-02  0.0
 -7.101409137000e-02  -4.349999130000e-02  0.0
 -8.863294498500e-02  -3.857322037500e-02  0.0
 -1.062517986000e-01  -3.364644945000e-02  0.0
 -8.313844725500e-02  -5.424998700500e-02  0.0
 -1.007573008700e-01  -4.932321608000e-02  0.0
 -9.526280314000e-02  -6.499998271000e-02  0.0
 -7.778175920000e-02  -9.192386270000e-02  0.0
 -8.652228117000e-02  -7.846192270500e-02  0.0
 -9.526280314000e-02  -6.499998271000e-02  0.0
 -9.639088065000e-02  -9.596193210000e-02  0.0
 -1.051314026200e-01  -8.249999210500e-02  0.0
 -1.150000021000e-01  -1.000000015000e-01  0.0
[...]
POINT_DATA 2244
SCALARS field1 double 1
LOOKUP_TABLE default
  2.838844088737e-03 
  9.482982925806e-02 
  1.868208144274e-01 
  1.368167639242e-03 
  9.335915280856e-02 
 -1.025088102525e-04 
  2.935911831944e-01 
  1.461724076695e-01 
 -1.246367855342e-03 
  1.477572908033e-01 
  3.385152783827e-04 
  1.923398412107e-03 
  1.845374758152e-01 
  2.387944344250e-01 
  2.930513930347e-01 
  2.542723025290e-01 
  3.085292611387e-01 
  3.240071292427e-01 
  2.943258888916e-01 
  2.393175394124e-01 
  1.843091899332e-01 
  2.225366034738e-01 
  1.675282539946e-01 
  1.507473180560e-01 
  4.024589374608e-01 
  3.634234234817e-01 
  3.243879095026e-01 
  3.497922945774e-01 
  3.107567805982e-01 
  2.971256516939e-01 
  2.964652798059e-01 
  1.380389534342e-01 
 -2.038737293750e-02 
  3.158988426756e-01 
  1.574725163039e-01 
  3.353324055453e-01 
  1.511444252698e-01 
  2.157923293852e-01 
  2.804402335005e-01 
  2.233611802169e-01 
  2.880090843323e-01 
  2.955779351640e-01 
  3.756980025070e-01 
  3.754057145123e-01 
  3.751134265175e-01 
  3.808453568577e-01 
  3.805530688630e-01 
  3.859927112084e-01 
  2.133691483295e-01 
  2.529587581965e-01 
  2.925483680635e-01 
  2.646844233623e-01 
  3.042740332293e-01 
  3.159996983950e-01 
  2.445555815981e-04 
  1.068621057261e-01 
  2.134796558706e-01 
  7.318442687496e-02 
  1.798019770195e-01 
  1.461242981683e-01 
  2.771638871481e-01 
  2.952428305588e-01 
  3.133217739695e-01 
  3.251110751186e-01 
  3.431900185293e-01 
  3.730582630892e-01 
  3.134651608032e-01 
  2.954089170312e-01 
  2.773526732593e-01 
  2.634045272656e-01 
  2.453482834936e-01 
  2.133438937280e-01 
  4.119504393306e-01 
  3.922422333698e-01 
  3.725340274090e-01 
  3.640644435848e-01 
  3.443562376240e-01 
  3.161784478390e-01 
  2.786237297170e-01 
  3.260507255224e-01 
  3.734777213278e-01 
  2.877894914588e-01 
  3.352164872642e-01 
  2.969552532006e-01 
  4.123189294883e-01 
  3.639673046820e-01 
  3.156156798756e-01 
  4.186013771757e-01 
  3.702497523693e-01 
  4.248838248630e-01 
  2.118721260032e-01 
  2.460460133306e-01 
  2.802199006581e-01 
  1.806345659592e-01 
  2.148084532867e-01 
  1.493970059153e-01 
  1.471463123934e-03 
  3.146704144056e-03 
  4.821945164178e-03 
  2.071945623726e-01 
  2.088698033927e-01 
  4.129176616212e-01 
  4.019835121710e-01 
  3.496268805360e-01 
  2.972702489010e-01 
  3.876892365686e-01 
  3.353326049336e-01 
  3.733949609662e-01 
  4.185469247690e-01 
  4.088666251594e-01 
  3.991863255498e-01 
  4.293321694138e-01 
  4.196518698042e-01 
  4.401174140586e-01 
  4.174745078611e-01 
  3.712931668633e-01 
  3.251118258655e-01 
  4.088145562520e-01 
  3.626332152542e-01 
  4.001546046429e-01 
  4.198591037573e-01 
  4.301076946301e-01 
  4.403562855028e-01 
  4.427902288585e-01 
  4.530388197313e-01 
  4.657213539598e-01 
  4.404530667960e-01 
  4.214094890036e-01 
  4.023659112111e-01 
  4.103224897107e-01 
  3.912789119182e-01 
  3.801919126253e-01 
  3.560827881211e-01 
  3.984580546469e-01 
  4.408333211726e-01 
  3.660055504884e-01 
  4.083808170141e-01 
  3.759283128557e-01 
  4.359732630601e-01 
  4.409917416961e-01 
  4.460102203322e-01 
  4.511502525909e-01 
  4.561687312269e-01 
  4.663272421217e-01 
  4.013006603812e-01 
  3.898347267171e-01 
  3.783687930529e-01 
  3.900938598884e-01 
  3.786279262242e-01 
  3.788870593955e-01 
  3.652694145365e-01 
  4.045030391236e-01 
  4.437366637108e-01 
  2.141759838880e-01 
  2.534096084752e-01 
  6.308255323961e-02 
  3.458390156856e-01 
  3.654382263132e-01 
  3.850374369408e-01 
  3.874568259206e-01 
  4.070560365482e-01 
  4.290746361556e-01 
  3.797918720560e-01 
  3.907079107725e-01 
  4.016239494891e-01 
  3.774899453157e-01 
  3.884059840323e-01 
  3.751880185754e-01 
  1.323590569136e-01 
  2.022215003175e-01 
  2.720839437214e-01 
  1.733488937170e-01 
  2.432113371209e-01 
  2.143387305203e-01 
  2.628239413993e-01 
  3.186688772330e-01 
  3.745138130667e-01 
  3.043406067266e-01 
  3.601855425603e-01 
  3.458572720538e-01 
  3.462307028064e-01 
  2.826817057037e-01 
  2.191327086009e-01 
  3.073034612485e-01 
  2.437544641457e-01 
  2.683762196905e-01 
  2.617553252791e-01 
  3.068464249135e-01 
  3.519375245479e-01 
  3.187485900766e-01 
  3.638396897109e-01 
  3.757418548740e-01 
  4.129601564630e-01 
  4.227920093663e-01 
  4.326238622695e-01 
  3.980760018080e-01 
  4.079078547112e-01 
  3.831918471529e-01 
  3.482766483380e-01 
  3.623016979411e-01 
  3.763267475442e-01 
  3.672163002840e-01 
  3.812413498871e-01 
  3.861559522300e-01 
  4.087620058933e-01 
  3.944030571272e-01 
  3.800441083611e-01 
  3.907591496103e-01 
  3.764002008443e-01 
  3.727562933274e-01 
  2.688740598983e-01 
  2.023489015839e-01 
  1.358237432695e-01 
  2.547161581448e-01 
  1.881909998304e-01 
  2.405582563913e-01 
  4.236044258758e-01 
  3.699117459617e-01 
  3.162190660475e-01 
  3.585753371475e-01 
  3.048826572333e-01 
  2.935462484191e-01 
  3.044213746841e-01 
  3.213492570379e-01 
  3.382771393917e-01 
  3.254205879678e-01 
  3.423484703216e-01 
  3.464198012515e-01 
  4.454243856241e-01 
  4.069137865799e-01 
  3.684031875357e-01 
  4.662655192965e-01 
  4.277549202523e-01 
  4.871066529689e-01 
  4.418609003892e-01 
  4.317175324710e-01 
  4.215741645527e-01 
  3.678679542638e-01 
  3.577245863456e-01 
  2.938750081384e-01 
  4.113373337824e-01 
  4.596850935400e-01 
  5.080328532976e-01 
  4.214571210206e-01 
  4.698048807782e-01 
  4.315769082588e-01 
  5.105571907299e-01 
  4.611084393366e-01 
  4.116596879433e-01 
  4.702856491344e-01 
  4.208368977411e-01 
  4.300141075389e-01 
  5.807558724062e-01 
  5.466514048121e-01 
  5.125469372180e-01 
  5.035914005277e-01 
  4.694869329336e-01 
  4.264269286492e-01 
  4.728009115344e-01 
  4.517715106639e-01 
  4.307421097934e-01 
  4.936470388522e-01 
  4.726176379817e-01 
  5.144931661700e-01 
  4.231398762322e-01 
  4.353165565600e-01 
  4.474932368878e-01 
  5.031953069907e-01 
  5.153719873185e-01 
  5.832507377492e-01 
  4.444348661385e-01 
  3.697669112837e-01 
  2.950989564290e-01 
  4.061222790975e-01 
  3.314543242427e-01 
  3.678096920565e-01 
  6.208459171356e-01 
  6.030945585822e-01 
  5.853432000288e-01 
  5.358196584293e-01 
  5.180682998759e-01 
  4.507933997230e-01 
  9.876472713419e-04 
  2.289006813676e-01 
  4.568137154638e-01 
 -2.643501679426e-03 
  2.252695324168e-01 
 -6.274650630193e-03 
  5.948230238703e-01 
  5.354529906103e-01 
  4.760829573504e-01 
  5.520551829229e-01 
  4.926851496630e-01 
  5.092873419755e-01 
  4.727174215127e-01 
  5.338457961756e-01 
  5.949741708385e-01 
  5.411506024278e-01 
  6.022789770907e-01 
  6.095837833429e-01 
  5.077141018788e-01 
  4.902859845058e-01 
  4.728578671328e-01 
  2.590709083355e-01 
  2.416427909626e-01 
  1.042771479227e-02 
  5.844730028820e-01 
  5.482268365096e-01 
  5.119806701373e-01 
  5.501087353480e-01 
  5.138625689757e-01 
  5.157444678141e-01 
  5.706655135561e-01 
  5.145195216714e-01 
  4.583735297868e-01 
  5.922115276251e-01 
  5.360655357405e-01 
  6.137575416941e-01 
  6.205490378289e-01 
  5.360473520923e-01 
  4.515456663557e-01 
  5.525686513572e-01 
  4.680669656206e-01 
  4.845882648854e-01 
  3.691170225968e-01 
  3.863337331751e-01 
  4.035504437534e-01 
  4.284524531826e-01 
  4.456691637609e-01 
  4.877878837683e-01 
  4.707341113893e-01 
  4.952943661354e-01 
  5.198546208816e-01 
  4.901627635036e-01 
  5.147230182498e-01 
  5.095914156180e-01 
 -1.631839590836e-03 
  1.109331568564e-01 
  2.234981533036e-01 
  4.916178396821e-03 
  1.174811748440e-01 
  1.146419638448e-02 
  2.199554277679e-01 
  2.808634858836e-01 
  3.417715439992e-01 
  2.884213109557e-01 
  3.493293690713e-01 
  3.568871941434e-01 
  3.394799011310e-01 
  1.729000084979e-01 
  6.320115864852e-03 
  1.697020477082e-01 
  3.122155075109e-03 
 -7.580571463346e-05 
 -8.575196438092e-03 
  1.960005889190e-02 
  4.777531422189e-02 
  6.074294711432e-02 
  8.891820244431e-02 
  1.300610906667e-01 
  3.627587845716e-03 
 -2.863152941996e-03 
 -9.353893729707e-03 
  1.069354844970e-01 
  1.004447437093e-01 
  2.102433811483e-01 
  2.442135397606e-01 
  1.227028146283e-01 
  1.192089495903e-03 
  2.141859431650e-01 
  9.267521803266e-02 
  1.841583465694e-01 
  2.214999525999e-01 
  2.937476919352e-01 
  3.659954312704e-01 
  1.185998786290e-01 
  1.908476179643e-01 
  1.569980465820e-02 
 -1.264095534792e-02 
  5.767505675162e-02 
  1.279910688512e-01 
  9.830680793298e-02 
  1.686228200325e-01 
  2.092545712139e-01 
  4.016623701762e-03 
  4.791872259881e-03 
  5.567120817999e-03 
  2.573073002421e-01 
  2.580825488003e-01 
  5.105979767825e-01 
  9.202283823285e-03 
  2.415765854076e-01 
  4.739508869919e-01 
  5.236324739655e-03 
  2.376106263240e-01 
  1.270365656025e-03 
  3.897135532838e-01 
  1.966962077690e-01 
  3.678862254271e-03 
  3.541443352777e-01 
  1.611269897630e-01 
  3.185751172717e-01 
  3.736591235019e-03 
  1.932876780263e-01 
  3.828387648175e-01 
  9.536959723184e-03 
  1.990880465144e-01 
  1.533732821135e-02 
  1.328678010386e-02 
  2.421437110314e-01 
  4.710006419589e-01 
  2.592182787002e-01 
  4.880752096277e-01 
  5.051497772965e-01 
  3.705026155793e-01 
  1.896583311864e-01 
  8.814046793510e-03 
  3.865741397354e-01 
  2.057298553425e-01 
  4.026456638915e-01 
  2.178304285149e-01 
  1.093327844431e-01 
  8.351403713364e-04 
  1.107925328486e-01 
  2.294888776808e-03 
  3.754637182280e-03 
  2.337643186321e-02 
  2.002219210976e-01 
  3.770674103321e-01 
  2.464598905485e-01 
  4.233053797829e-01 
  4.695433492338e-01 
  3.646522382343e-01 
  3.980898590161e-01 
  4.315274797979e-01 
  4.179142995787e-01 
  4.513519203605e-01 
  4.711763609232e-01 
  2.998805744570e-01 
  1.540831892848e-01 
  8.285804112659e-03 
  3.312925476147e-01 
  1.854951624425e-01 
  3.627045207724e-01 
  6.177896403220e-01 
  5.501906582357e-01 
  4.825916761494e-01 
  5.649259584593e-01 
  4.973269763730e-01 
  5.120622765966e-01 
  3.587958767866e-01 
  3.498645671462e-01 
  3.409332575059e-01 
  3.957256209742e-01 
  3.867943113338e-01 
  4.326553651618e-01 
  1.578285183085e-03 
  4.289632352230e-03 
  7.000979521374e-03 
  1.526722608924e-01 
  1.553836080615e-01 
  3.037662366017e-01 
  4.206542371720e-02 
  1.909184571504e-02 
 -3.881732287115e-03 
  1.910996366421e-02 
 -3.863614337949e-03 
 -3.845496388782e-03 
  4.239467163602e-01 
  4.346059175525e-01 
  4.452651187448e-01 
  4.064363516548e-01 
  4.170955528470e-01 
  3.889259869493e-01 
  4.470694735185e-01 
  4.558140500942e-01 
  4.645586266699e-01 
  4.570890515587e-01 
  4.658336281344e-01 
  4.671086295989e-01 
  4.631888507803e-01 
  4.413573351150e-01 
  4.195258194496e-01 
  4.405107923854e-01 
  4.186792767200e-01 
  4.178327339905e-01 
  4.198902990680e-01 
  4.411367860065e-01 
  4.623832729449e-01 
  4.320903034431e-01 
  4.533367903815e-01 
  4.442903078181e-01 
  4.169619766859e-01 
  4.191513281056e-01 
  4.213406795252e-01 
  3.714264345129e-01 
  3.736157859325e-01 
  3.258908923398e-01 
 -9.983058656227e-03 
 -3.055231291601e-02 
 -5.112156717579e-02 
  1.422403420550e-01 
  1.216710877952e-01 
  2.944637427662e-01 
  4.472598584546e-01 
  4.022849379022e-01 
  3.573100173499e-01 
  4.156720070200e-01 
  3.706970864676e-01 
  3.840841555854e-01 
  4.467939510187e-01 
  4.426957445193e-01 
  4.385975380199e-01 
  4.035198999454e-01 
  3.994216934460e-01 
  3.602458488721e-01 
  2.638207790136e-01 
  3.239169310527e-01 
  3.840130830918e-01 
  3.090048710354e-01 
  3.691010230745e-01 
  3.541889630572e-01 
  3.611676898224e-01 
  3.139821323027e-01 
  2.667965747829e-01 
  2.958962955460e-01 
  2.487107380263e-01 
  2.306249012697e-01 
  3.827789129032e-01 
  3.685815652411e-01 
  3.543842175789e-01 
  3.867404656881e-01 
  3.725431180259e-01 
  3.907020184729e-01 
  3.539487355573e-01 
  3.673304435884e-01 
  3.807121516195e-01 
  3.093733146236e-01 
  3.227550226547e-01 
  2.647978936900e-01 
  4.158368792438e-01 
  4.019707512861e-01 
  3.881046233283e-01 
  4.313882864894e-01 
  4.175221585316e-01 
  4.469396937349e-01 
  3.867811356222e-01 
  3.873280568824e-01 
  3.878749781426e-01 
  4.056357529859e-01 
  4.061826742461e-01 
  4.244903703495e-01 
  2.678214949213e-01 
  2.532800300539e-01 
  2.387385651864e-01 
  2.022529962751e-01 
  1.877115314077e-01 
  1.366844976289e-01 
  2.641439538617e-01 
  3.082838379882e-01 
  3.524237221146e-01 
  2.509603588371e-01 
  2.951002429636e-01 
  2.377767638125e-01 
  3.506978525935e-01 
  3.068117126345e-01 
  2.629255726755e-01 
  2.949958300678e-01 
  2.511096901089e-01 
  2.392938075422e-01 
  4.235523217907e-01 
  4.071734609118e-01 
  3.907946000329e-01 
  4.068088716021e-01 
  3.904300107233e-01 
  3.900654214136e-01 
  3.248547912084e-01 
  3.197154753240e-01 
  3.145761594396e-01 
  2.548860875157e-01 
  2.497467716313e-01 
  1.849173838230e-01 
  3.257531607912e-01 
  3.744111915370e-01 
  4.230692222829e-01 
  3.216639713702e-01 
  3.703220021161e-01 
  3.175747819492e-01 
  1.836823310610e-01 
  1.851598896648e-01 
  1.866374482686e-01 
  9.198448347352e-02 
  9.346204207729e-02 
  2.866358860225e-04 
  1.881002976053e-01 
  1.860506604762e-01 
  1.840010233470e-01 
  2.517674344655e-01 
  2.497177973363e-01 
  3.154345713257e-01 
  2.551281070761e-01 
  1.306593965388e-01 
  6.190686001370e-03 
  1.271310657022e-01 
  2.662355164812e-03 
 -8.659756717458e-04 
  3.164974336860e-02 
  1.701197238584e-02 
  2.374201403074e-03 
  2.100143492596e-01 
  1.953765782769e-01 
  3.883789551507e-01 
  3.165476039166e-01 
  3.073170152668e-01 
  2.980864266170e-01 
  2.523769198200e-01 
  2.431463311701e-01 
  1.882062357233e-01 
  3.533123225036e-01 
  1.759027572244e-01 
 -1.506808054852e-03 
  1.898763048713e-01 
  1.246673959209e-02 
  2.644028723903e-02 
  3.877651601971e-01 
  3.998396113919e-01 
  4.119140625867e-01 
  3.650093706765e-01 
  3.770838218713e-01 
  3.422535811559e-01 
  4.109072540217e-01 
  3.999266024499e-01 
  3.889459508781e-01 
  4.008074244617e-01 
  3.898267728899e-01 
  3.907075949017e-01 
  2.935946558837e-01 
  3.191282195725e-01 
  3.446617832613e-01 
  2.704197263765e-01 
  2.959532900653e-01 
  2.472447968692e-01 
  3.413188417194e-01 
  3.186117487716e-01 
  2.959046558237e-01 
  3.643256525604e-01 
  3.416185596125e-01 
  3.873324634013e-01 
  2.507855514260e-01 
  2.987884752582e-01 
  3.467913990903e-01 
  2.914400204449e-01 
  3.394429442770e-01 
  3.320944894637e-01 
  2.969908998499e-01 
  2.699361599194e-01 
  2.428814199888e-01 
  2.416359184481e-01 
  2.145811785175e-01 
  1.862809370462e-01 
  4.109973854963e-01 
  4.147287344088e-01 
  4.184600833214e-01 
  3.768205545088e-01 
  3.805519034214e-01 
  3.426437235213e-01 
  3.876554230206e-01 
  3.427045161249e-01 
  2.977536092291e-01 
  3.522157530807e-01 
  3.072648461850e-01 
  3.167760831409e-01 
  4.225438906218e-01 
  4.048035687104e-01 
  3.870632467989e-01 
  3.695911396945e-01 
  3.518508177831e-01 
  3.166383887673e-01 
  2.555759126853e-01 
  2.905076224628e-01 
  3.254393322403e-01 
  1.313196526283e-01 
  1.662513624058e-01 
  7.063392571256e-03 
  3.863433379898e-01 
  3.712903368250e-01 
  3.562373356602e-01 
  4.159364531200e-01 
  4.008834519552e-01 
  4.455295682502e-01 
  5.828052250696e-02 
  1.697310898694e-01 
  2.811816572319e-01 
  1.173045399938e-01 
  2.287551073562e-01 
  1.763285574806e-01 
  4.513270443475e-02 
  2.040957411516e-02 
 -4.313556204422e-03 
  8.985862112319e-02 
  6.513549080360e-02 
  1.345845378116e-01 
  4.113228438330e-02 
  1.836035777126e-02 
 -4.411568840773e-03 
  1.941338246156e-02 
 -3.358544150477e-03 
 -2.305519460181e-03 
  1.370818022923e-01 
  6.912693596445e-02 
  1.172069636611e-03 
  1.794608860715e-01 
  1.115060197436e-01 
  2.218399698506e-01 
  3.370773792283e-01 
  2.790985115740e-01 
  2.211196439198e-01 
  1.669678782639e-01 
  1.089890106097e-01 
 -3.141622700418e-03 
  3.468733401155e-01 
  3.996261551077e-01 
  4.523789700999e-01 
  3.546682401796e-01 
  4.074210551718e-01 
  3.624631402437e-01 
  3.415973128416e-01 
  3.537539252833e-01 
  3.659105377250e-01 
  2.836984524640e-01 
  2.958550649057e-01 
  2.257995920864e-01 
  2.304367191757e-03 
  6.934828553107e-02 
  1.363922038704e-01 
 -1.350745193110e-04 
  6.690884382001e-02 
 -2.574516230379e-03 
  2.694871125129e-01 
  2.029268419292e-01 
  1.363665713455e-01 
  2.480168931947e-01 
  1.814566226110e-01 
  2.265466738765e-01 
 -1.237688882926e-03 
  3.059784184124e-03 
  7.357257251173e-03 
  1.691933114556e-01 
  1.734907845227e-01 
  3.396243117942e-01 
  4.091571102131e-01 
  2.093015858312e-01 
  9.446061449291e-03 
  4.035852796737e-01 
  2.037297552918e-01 
  3.980134491344e-01 
  2.701861613051e-01 
  1.947824624353e-01 
  1.193787635655e-01 
  3.593897650852e-01 
  2.839860662154e-01 
  4.485933688653e-01 
  1.867075839925e-01 
  9.487446921990e-02 
  3.041354447267e-03 
  1.675597651839e-01 
  7.572665041131e-02 
  1.484119463753e-01 
  4.864292396854e-01 
  2.449444754360e-01 
  3.459711186716e-03 
  2.491603441226e-01 
  7.675579873248e-03 
  1.189144855978e-02 
  4.727215335403e-01 
  2.360368576708e-01 
 -6.478181987437e-04 
  2.418351887457e-01 
  5.150512876144e-03 
  1.094884395103e-02 
  3.429200367873e-01 
  1.743878898509e-01 
  5.855742914442e-03 
  3.166211512489e-01 
  1.480890043125e-01 
  2.903222657105e-01 
  3.353535030470e-01 
  1.692220923384e-01 
  3.090681629711e-03 
  3.980329772562e-01 
  2.319015665476e-01 
  4.607124514654e-01 
  3.846775445113e-01 
  3.667259874316e-01 
  3.487744303520e-01 
  3.732394163689e-01 
  3.552878592893e-01 
  3.618012882265e-01 
  5.169151490694e-01 
  2.610716111339e-01 
  5.228073198349e-03 
  2.593408256874e-01 
  3.497287751908e-03 
  1.766502305466e-03 
  4.494995526040e-01 
  4.567004757930e-01 
  4.639013989820e-01 
  4.900646048533e-01 
  4.972655280422e-01 
  5.306296571025e-01 
  4.582869017150e-01 
  4.562100006720e-01 
  4.541330996289e-01 
  3.998185274891e-01 
  3.977416264461e-01 
  3.413501532632e-01 
  4.393227283965e-01 
  3.835385947513e-01 
  3.277544611062e-01 
  4.291170450983e-01 
  3.733329114532e-01 
  4.189113618002e-01 
  3.316572973343e-01 
  3.387548918167e-01 
  3.458524862991e-01 
  3.747098484556e-01 
  3.818074429380e-01 
  4.177623995770e-01 
  4.255973862920e-01 
  4.187689955827e-01 
  4.119406048734e-01 
  4.780773747860e-01 
  4.712489840767e-01 
  5.305573632799e-01 
  5.309263054368e-01 
  5.619510164644e-01 
  5.929757274920e-01 
  4.777027490397e-01 
  5.087274600673e-01 
  4.244791926427e-01 
  5.306597745505e-01 
  5.004243103950e-01 
  4.701888462394e-01 
  5.225074008151e-01 
  4.922719366596e-01 
  5.143550270798e-01 
  4.471525224339e-01 
  4.871814713569e-01 
  5.272104202799e-01 
  4.300304770923e-01 
  4.700594260153e-01 
  4.129084317507e-01 
  5.112806267053e-01 
  4.964646190359e-01 
  4.816486113665e-01 
  5.554424610738e-01 
  5.406264534044e-01 
  5.996042954424e-01 
  5.141641944801e-01 
  4.979390522056e-01 
  4.817139099312e-01 
  2.663463479394e-01 
  2.501212056649e-01 
  1.852850139866e-02 
  4.532818228516e-01 
  5.247734397803e-01 
  5.962650567090e-01 
  5.358445509757e-01 
  6.073361679044e-01 
  6.184072790998e-01 
  5.960505572834e-01 
  5.224757455996e-01 
  4.489009339159e-01 
  5.086008947312e-01 
  4.350260830474e-01 
  4.211512321790e-01 
  3.878351150242e-01 
  4.153333674853e-01 
  4.428316199464e-01 
  4.394766319319e-01 
  4.669748843930e-01 
  4.911181488397e-01 
  4.414803906371e-01 
  4.141182691744e-01 
  3.867561477117e-01 
  3.827438114241e-01 
  3.553816899614e-01 
  3.240072322111e-01 
  6.068909870862e-01 
  6.036597904084e-01 
  6.004285937305e-01 
  5.426011311988e-01 
  5.393699345209e-01 
  4.783112753113e-01 
  5.129360925929e-01 
  5.524378779685e-01 
  5.919396633441e-01 
  5.213015491537e-01 
  5.608033345293e-01 
  5.296670057144e-01 
  9.451379635955e-03 
  2.452008262811e-01 
  4.809502729263e-01 
  2.612510462737e-01 
  4.970004929189e-01 
  5.130507129114e-01 