# vtk DataFile Version 2
NuDG++ 2D simulation
ASCII
DATASET UNSTRUCTURED_GRID

POINTS 2244 double
 -1.656250060000e-01  -2.000000030000e-01  0.0
 -1.828125045000e-01  -1.772221997500e-01  0.0
 -2.000000030000e-01  -1.544443965000e-01  0.0
 -1.828125045000e-01  -2.000000030000e-01  0.0
 -2.000000030000e-01  -1.772221997500e-01  0.0
 -2.000000030000e-01  -2.000000030000e-01  0.0
 -6.428571790000e-02  -1.700000018000e-01  0.0
 -8.058035746000e-02  -1.850000024000e-01  0.0
 -9.687499702000e-02  -2.000000030000e-01  0.0
 -6.339285895000e-02  -1.850000024000e-01  0.0
 -7.968749851000e-02  -2.000000030000e-01  0.0
 -6.250000000000e-02  -2.000000030000e-01  0.0
 -2.000000030000e-01  -1.544443965000e-01  0.0
 -1.750000045000e-01  -1.379364989500e-01  0.0
 -1.500000060000e-01  -1.214286014000e-01  0.0
 -2.000000030000e-01  -1.316666491500e-01  0.0
 -1.750000045000e-01  -1.151587516000e-01  0.0
 -2.000000030000e-01  -1.088889018000e-01  0.0
 -1.500000060000e-01  -1.214286014000e-01  0.0
 -1.750000045000e-01  -1.379364989500e-01  0.0
 -2.000000030000e-01  -1.544443965000e-01  0.0
 -1.500000060000e-01  -1.457143016000e-01  0.0
 -1.750000045000e-01  -1.622221991500e-01  0.0
 -1.500000060000e-01  -1.700000018000e-01  0.0
 -1.500000060000e-01  -7.285714149000e-02  0.0
 -1.750000045000e-01  -9.087302164500e-02  0.0
 -2.000000030000e-01  -1.088889018000e-01  0.0
 -1.500000060000e-01  -9.714287144500e-02  0.0
 -1.750000045000e-01  -1.151587516000e-01  0.0
 -1.500000060000e-01  -1.214286014000e-01  0.0
  1.832975030000e+00  -4.625000060000e-02  0.0
  1.853987515000e+00  -1.231250018000e-01  0.0
  1.875000000000e+00  -2.000000030000e-01  0.0
  1.916487515000e+00  -7.187499851000e-02  0.0
  1.937500000000e+00  -1.487499997100e-01  0.0
  2.000000000000e+00  -9.749999642000e-02  0.0
 -1.500000060000e-01  -1.700000018000e-01  0.0
 -1.360000037000e-01  -1.525000036000e-01  0.0
 -1.220000014000e-01  -1.350000054000e-01  0.0
 -1.500000060000e-01  -1.457143016000e-01  0.0
 -1.360000037000e-01  -1.282143034000e-01  0.0
 -1.500000060000e-01  -1.214286014000e-01  0.0
  2.849999964000e-01  -2.333333530000e-02  0.0
  2.837499976000e-01  -8.166666795000e-02  0.0
  2.824999988000e-01  -1.400000006000e-01  0.0
  3.174999952000e-01  -4.666666780000e-02  0.0
  3.162499964000e-01  -1.050000004500e-01  0.0
  3.499999940000e-01  -7.000000030000e-02  0.0
 -1.071429029000e-01  -1.700000018000e-01  0.0
 -8.571431040000e-02  -1.700000018000e-01  0.0
 -6.428571790000e-02  -1.700000018000e-01  0.0
 -9.857145324000e-02  -1.525000036000e-01  0.0
 -7.714286074000e-02  -1.525000036000e-01  0.0
 -9.000000358000e-02  -1.350000054000e-01  0.0
 -1.312499940000e-01  -2.000000030000e-01  0.0
 -1.191964484500e-01  -1.850000024000e-01  0.0
 -1.071429029000e-01  -1.700000018000e-01  0.0
 -1.406250000000e-01  -1.850000024000e-01  0.0
 -1.285714544500e-01  -1.700000018000e-01  0.0
 -1.500000060000e-01  -1.700000018000e-01  0.0
 -1.220000014000e-01  -1.350000054000e-01  0.0
 -1.060000024900e-01  -1.350000054000e-01  0.0
 -9.000000358000e-02  -1.350000054000e-01  0.0
 -1.185000017500e-01  -1.175000034500e-01  0.0
 -1.025000028400e-01  -1.175000034500e-01  0.0
 -1.150000021000e-01  -1.000000015000e-01  0.0
 -9.000000358000e-02  -1.350000054000e-01  0.0
 -1.060000024900e-01  -1.350000054000e-01  0.0
 -1.220000014000e-01  -1.350000054000e-01  0.0
 -9.857145324000e-02  -1.525000036000e-01  0.0
 -1.145714521500e-01  -1.525000036000e-01  0.0
 -1.071429029000e-01  -1.700000018000e-01  0.0
 -7.778175920000e-02  -9.192386270000e-02  0.0
 -9.639088065000e-02  -9.596193210000e-02  0.0
 -1.150000021000e-01  -1.000000015000e-01  0.0
 -8.389088139000e-02  -1.134619340500e-01  0.0
 -1.025000028400e-01  -1.175000034500e-01  0.0
 -9.000000358000e-02  -1.350000054000e-01  0.0
 -1.220000014000e-01  -1.350000054000e-01  0.0
 -1.185000017500e-01  -1.175000034500e-01  0.0
 -1.150000021000e-01  -1.000000015000e-01  0.0
 -1.360000037000e-01  -1.282143034000e-01  0.0
 -1.325000040500e-01  -1.107143014500e-01  0.0
 -1.500000060000e-01  -1.214286014000e-01  0.0
 -7.778175920000e-02  -9.192386270000e-02  0.0
 -8.389088139000e-02  -1.134619340500e-01  0.0
 -9.000000358000e-02  -1.350000054000e-01  0.0
 -6.639088876500e-02  -1.022535823500e-01  0.0
 -7.250001095500e-02  -1.237916537000e-01  0.0
 -5.500001833000e-02  -1.125833020000e-01  0.0
 -1.071429029000e-01  -1.700000018000e-01  0.0
 -1.145714521500e-01  -1.525000036000e-01  0.0
 -1.220000014000e-01  -1.350000054000e-01  0.0
 -1.285714544500e-01  -1.700000018000e-01  0.0
 -1.360000037000e-01  -1.525000036000e-01  0.0
 -1.500000060000e-01  -1.700000018000e-01  0.0
  6.250000093000e-03  -2.000000030000e-01  0.0
  4.062500153650e-02  -2.000000030000e-01  0.0
  7.500000298000e-02  -2.000000030000e-01  0.0
  1.383928512150e-02  -1.850000024000e-01  0.0
  4.821428656500e-02  -1.850000024000e-01  0.0
  2.142857015000e-02  -1.700000018000e-01  0.0
 -1.500000060000e-01  -7.285714149000e-02  0.0
 -1.500000060000e-01  -9.714287144500e-02  0.0
 -1.500000060000e-01  -1.214286014000e-01  0.0
 -1.325000040500e-01  -8.642857149500e-02  0.0
 -1.325000040500e-01  -1.107143014500e-01  0.0
 -1.150000021000e-01  -1.000000015000e-01  0.0
 -2.000000030000e-01  -6.333333254000e-02  0.0
 -1.750000045000e-01  -6.809523701500e-02  0.0
 -1.500000060000e-01  -7.285714149000e-02  0.0
 -1.750000045000e-01  -4.380952660000e-02  0.0
 -1.500000060000e-01  -4.857143107500e-02  0.0
 -1.500000060000e-01  -2.428572066000e-02  0.0
 -2.000000030000e-01  -6.333333254000e-02  0.0
 -2.000000030000e-01  -8.611111717000e-02  0.0
 -2.000000030000e-01  -1.088889018000e-01  0.0
 -1.750000045000e-01  -6.809523701500e-02  0.0
 -1.750000045000e-01  -9.087302164500e-02  0.0
 -1.500000060000e-01  -7.285714149000e-02  0.0
 -2.000000030000e-01  -6.333333254000e-02  0.0
 -1.750000045000e-01  -4.380952660000e-02  0.0
 -1.500000060000e-01  -2.428572066000e-02  0.0
 -2.000000030000e-01  -4.055555630500e-02  0.0
 -1.750000045000e-01  -2.103175036500e-02  0.0
 -2.000000030000e-01  -1.777778007000e-02  0.0
 -1.500000060000e-01  -2.428572066000e-02  0.0
 -1.500000060000e-01  -4.857143107500e-02  0.0
 -1.500000060000e-01  -7.285714149000e-02  0.0
 -1.281259023000e-01  -2.896608505500e-02  0.0
 -1.281259023000e-01  -5.325179547000e-02  0.0
 -1.062517986000e-01  -3.364644945000e-02  0.0
 -1.099999994000e-01   1.996667010000e-08  0.0
 -1.300000027000e-01  -1.214285034666e-02  0.0
 -1.500000060000e-01  -2.428572066000e-02  0.0
 -1.081258990000e-01  -1.682321474166e-02  0.0
 -1.281259023000e-01  -2.896608505500e-02  0.0
 -1.062517986000e-01  -3.364644945000e-02  0.0
 -1.500000060000e-01  -2.428572066000e-02  0.0
 -1.500000060000e-01   0.000000000000e+00  0.0
 -1.500000060000e-01   2.428572066000e-02  0.0
 -1.750000045000e-01  -2.103175036500e-02  0.0
 -1.750000045000e-01   3.253970295000e-03  0.0
 -2.000000030000e-01  -1.777778007000e-02  0.0
 -1.500000060000e-01  -7.285714149000e-02  0.0
 -1.226314045700e-01  -6.892856210000e-02  0.0
 -9.526280314000e-02  -6.499998271000e-02  0.0
 -1.281259023000e-01  -5.325179547000e-02  0.0
 -1.007573008700e-01  -4.932321608000e-02  0.0
 -1.062517986000e-01  -3.364644945000e-02  0.0
  3.499999940000e-01   1.400000006000e-01  0.0
  4.021931737500e-01   1.224999986500e-01  0.0
  4.543863535000e-01   1.049999967000e-01  0.0
  4.187500029500e-01   1.749999970000e-01  0.0
  4.709431827000e-01   1.574999950500e-01  0.0
  4.875000119000e-01   2.099999934000e-01  0.0
 -7.101409137000e-02  -4.349999130000e-02  0.0
 -8.313844725500e-02  -5.424998700500e-02  0.0
 -9.526280314000e-02  -6.499998271000e-02  0.0
 -6.449843011500e-02  -5.250913650000e-02  0.0
 -7.662278600000e-02  -6.325913220500e-02  0.0
 -5.798276886000e-02  -6.151828170000e-02  0.0
 -9.526280314000e-02  -6.499998271000e-02  0.0
 -1.226314045700e-01  -6.892856210000e-02  0.0
 -1.500000060000e-01  -7.285714149000e-02  0.0
 -1.051314026200e-01  -8.249999210500e-02  0.0
 -1.325000040500e-01  -8.642857149500e-02  0.0
 -1.150000021000e-01  -1.000000015000e-01  0.0
 -6.181925908000e-02  -1.656441018000e-02  0.0
 -7.051259093000e-02  -1.954082492500e-02  0.0
 -7.920592278000e-02  -2.251723967000e-02  0.0
 -5.862244405000e-02  -2.428220026000e-02  0.0
 -6.731577590000e-02  -2.725861500500e-02  0.0
 -5.542562902000e-02  -3.199999034000e-02  0.0
 -7.920592278000e-02  -2.251723967000e-02  0.0
 -9.272886069000e-02  -2.808184456000e-02  0.0
 -1.062517986000e-01  -3.364644945000e-02  0.0
 -7.511000707500e-02  -3.300861548500e-02  0.0
 -8.863294498500e-02  -3.857322037500e-02  0.0
 -7.101409137000e-02  -4.349999130000e-02  0.0
 -7.101409137000e-02  -4.349999130000e-02  0.0
 -6.321986019500e-02  -3.774999082000e-02  0.0
 -5.542562902000e-02  -3.199999034000e-02  0.0
 -7.511000707500e-02  -3.300861548500e-02  0.0
 -6.731577590000e-02  -2.725861500500e-02  0.0
 -7.920592278000e-02  -2.251723967000e-02  0.0
 -7.920592278000e-02  -2.251723967000e-02  0.0
 -9.460296109000e-02  -1.125860985166e-02  0.0
 -1.099999994000e-01   1.996667010000e-08  0.0
 -9.272886069000e-02  -2.808184456000e-02  0.0
 -1.081258990000e-01  -1.682321474166e-02  0.0
 -1.062517986000e-01  -3.364644945000e-02  0.0
 -7.778175920000e-02  -9.192386270000e-02  0.0
 -6.788226403000e-02  -7.672107220000e-02  0.0
 -5.798276886000e-02  -6.151828170000e-02  0.0
 -8.652228117000e-02  -7.846192270500e-02  0.0
 -7.662278600000e-02  -6.325913220500e-02  0.0
 -9.526280314000e-02  -6.499998271000e-02  0.0
 -7.101409137000e-02  -4.349999130000e-02  0.0
 -8.863294498500e-02  -3.857322037500e-02  0.0
 -1.062517986000e-01  -3.364644945000e-02  0.0
 -8.313844725500e-02  -5.424998700500e-02  0.0
 -1.007573008700e-01  -4.932321608000e-02  0.0
 -9.526280314000e-02  -6.499998271000e-02  0.0
 -7.778175920000e-02  -9.192386270000e-02  0.0
 -8.652228117000e-02  -7.846192270500e-02  0.0
 -9.526280314000e-02  -6.499998271000e-02  0.0
 -9.639088065000e-02  -9.596193210000e-02  0.0
 -1.051314026200e-01  -8.249999210500e-02  0.0
 -1.150000021000e-01  -1.000000015000e-01  0.0
[...]
POINT_DATA 2244
SCALARS field1 double 1
LOOKUP_TABLE default
  2.974271731158e-03 
  1.269674514005e-01 
  2.509606310698e-01 
  1.313524052737e-03 
  1.253067037221e-01 
 -3.472236256842e-04 
  3.571472621945e-01 
  1.772686741495e-01 
 -2.609913895543e-03 
  1.796477676641e-01 
 -2.308203809820e-04 
  2.148273133579e-03 
  2.483204515796e-01 
  3.211067705647e-01 
  3.938930895499e-01 
  3.424016990780e-01 
  4.151880180632e-01 
  4.364829465765e-01 
  3.947589753064e-01 
  3.214523432277e-01 
  2.481457111490e-01 
  2.961552027029e-01 
  2.228485706242e-01 
  1.975514300993e-01 
  5.428383442726e-01 
  4.899010030527e-01 
  4.369636618328e-01 
  4.708589710275e-01 
  4.179216298077e-01 
  3.988795977825e-01 
  1.285396205959e-01 
  1.344935240765e-03 
 -1.258497501144e-01 
  1.574834792098e-01 
  3.028879385467e-02 
  1.864273378237e-01 
  1.983664734461e-01 
  2.845561956611e-01 
  3.707459178760e-01 
  2.969984592032e-01 
  3.831881814182e-01 
  3.956304449604e-01 
  5.343128731882e-01 
  4.988491639836e-01 
  4.633854547790e-01 
  5.363590266563e-01 
  5.008953174517e-01 
  5.384051801244e-01 
  2.646373113355e-01 
  3.114410805638e-01 
  3.582448497922e-01 
  3.416678495692e-01 
  3.884716187975e-01 
  4.186983878028e-01 
 -1.780541768473e-04 
  1.327352823718e-01 
  2.656486189204e-01 
  9.597353715406e-02 
  2.288868737027e-01 
  1.921251284850e-01 
  3.664477797999e-01 
  3.917920385581e-01 
  4.171362973163e-01 
  4.351264613884e-01 
  4.604707201467e-01 
  5.038051429770e-01 
  4.152161739216e-01 
  3.912097244597e-01 
  3.672032749978e-01 
  3.398768051894e-01 
  3.158703557275e-01 
  2.645374364572e-01 
  5.580256173755e-01 
  5.310665723081e-01 
  5.041075272406e-01 
  4.895371426535e-01 
  4.625780975860e-01 
  4.210486679314e-01 
  3.689722828539e-01 
  4.357035818757e-01 
  5.024348808975e-01 
  3.826286459886e-01 
  4.493599450105e-01 
  3.962850091234e-01 
  5.583261209645e-01 
  4.889264504186e-01 
  4.195267798728e-01 
  5.617359730291e-01 
  4.923363024832e-01 
  5.651458250936e-01 
  2.637842146054e-01 
  3.172646329056e-01 
  3.707450512057e-01 
  2.301825539298e-01 
  2.836629722300e-01 
  1.965808932543e-01 
  1.559682990311e-03 
  4.194785085760e-03 
  6.829887181210e-03 
  2.577639242454e-01 
  2.603990263409e-01 
  5.139681655005e-01 
  5.425228195689e-01 
  4.697099522135e-01 
  3.968970848581e-01 
  5.220208146357e-01 
  4.492079472803e-01 
  5.015188097025e-01 
  5.628504003140e-01 
  5.508184840383e-01 
  5.387865677627e-01 
  5.782993254493e-01 
  5.662674091737e-01 
  5.937482505846e-01 
  5.613400970424e-01 
  4.991917519783e-01 
  4.370434069142e-01 
  5.505624192331e-01 
  4.884140741690e-01 
  5.397847414237e-01 
  5.645631566168e-01 
  5.793730549400e-01 
  5.941829532631e-01 
  5.954201752720e-01 
  6.102300735951e-01 
  6.262771939271e-01 
  5.941364171494e-01 
  5.690066173599e-01 
  5.438768175703e-01 
  5.574894833783e-01 
  5.323596835887e-01 
  5.208425496071e-01 
  4.935254586038e-01 
  5.440896941632e-01 
  5.946539297226e-01 
  5.034835319259e-01 
  5.540477674853e-01 
  5.134416052480e-01 
  5.884739600995e-01 
  5.964365730599e-01 
  6.043991860202e-01 
  6.077794197628e-01 
  6.157420327232e-01 
  6.270848794261e-01 
  5.429043505412e-01 
  5.302920107651e-01 
  5.176796709889e-01 
  5.308410091131e-01 
  5.182286693370e-01 
  5.187776676851e-01 
  4.593662155121e-01 
  5.089639676190e-01 
  5.585617197258e-01 
  2.585805277563e-01 
  3.081782798632e-01 
  5.779484000060e-02 
  4.838781353642e-01 
  5.043363870720e-01 
  5.247946387798e-01 
  5.389543371778e-01 
  5.594125888856e-01 
  5.940305389913e-01 
  5.205095529266e-01 
  5.317625562957e-01 
  5.430155596649e-01 
  5.133460943945e-01 
  5.245990977637e-01 
  5.061826358625e-01 
  1.911184572700e-01 
  2.850018987185e-01 
  3.788853401670e-01 
  2.536498286038e-01 
  3.475332700523e-01 
  3.161811999375e-01 
  3.626266468902e-01 
  4.364777794826e-01 
  5.103289120750e-01 
  4.233458913743e-01 
  4.971970239667e-01 
  4.840651358584e-01 
  4.872065924599e-01 
  4.061386664882e-01 
  3.250707405164e-01 
  4.300020455013e-01 
  3.489341195295e-01 
  3.727974985426e-01 
  3.618576614279e-01 
  4.248972182988e-01 
  4.879367751697e-01 
  4.373972460365e-01 
  5.004368029074e-01 
  5.129368306451e-01 
  5.579362112181e-01 
  5.785291884801e-01 
  5.991221657420e-01 
  5.404808228686e-01 
  5.610738001306e-01 
  5.230254345192e-01 
  4.871190045245e-01 
  5.008505940492e-01 
  5.145821835739e-01 
  5.074681363697e-01 
  5.211997258943e-01 
  5.278172682148e-01 
  5.524010965108e-01 
  5.358786068263e-01 
  5.193561171418e-01 
  5.282816992533e-01 
  5.117592095688e-01 
  5.041623019958e-01 
  3.735486519755e-01 
  2.864936290651e-01 
  1.994386061547e-01 
  3.595769352469e-01 
  2.725219123365e-01 
  3.456052185183e-01 
  5.645997211185e-01 
  4.918507450009e-01 
  4.191017688832e-01 
  4.620036960296e-01 
  3.892547199119e-01 
  3.594076709407e-01 
  1.769020772615e-01 
  1.795327795524e-01 
  1.821634818433e-01 
  4.067426133082e-01 
  4.093733155991e-01 
  6.365831493549e-01 
  5.816320894577e-01 
  5.180079153166e-01 
  4.543837411756e-01 
  6.075243117115e-01 
  5.439001375704e-01 
  6.334165339653e-01 
  5.782672518569e-01 
  5.703691412546e-01 
  5.624710306522e-01 
  4.692417729140e-01 
  4.613436623116e-01 
  3.602162939710e-01 
  5.548023244117e-01 
  6.284985350216e-01 
  7.021947456316e-01 
  5.760660494308e-01 
  6.497622600407e-01 
  5.973297744498e-01 
  7.059070580747e-01 
  6.310800867255e-01 
  5.562531153762e-01 
  6.397981058417e-01 
  5.649711344925e-01 
  5.736891536087e-01 
  8.021015936095e-01 
  7.551239208404e-01 
  7.081462480713e-01 
  6.851167152430e-01 
  6.381390424739e-01 
  5.681318368765e-01 
  7.042392827232e-01 
  6.505168802003e-01 
  5.967944776774e-01 
  7.093706826183e-01 
  6.556482800955e-01 
  7.145020825135e-01 
  5.644864369462e-01 
  5.756095939433e-01 
  5.867327509404e-01 
  6.854682765890e-01 
  6.965914335861e-01 
  8.064501162318e-01 
  5.810100213721e-01 
  4.716416404805e-01 
  3.622732595889e-01 
  5.176765642700e-01 
  4.083081833784e-01 
  4.543431071679e-01 
  8.628290488666e-01 
  8.362371216126e-01 
  8.096451943586e-01 
  7.262525822489e-01 
  6.996606549949e-01 
  5.896761156312e-01 
 -9.453759155992e-04 
  3.459509585789e-01 
  6.928472930735e-01 
 -6.667018299331e-03 
  3.402293161952e-01 
 -1.238866068306e-02 
  8.266318856133e-01 
  7.789740975604e-01 
  7.313163095075e-01 
  7.985498971484e-01 
  7.508921090955e-01 
  7.704679086835e-01 
  7.259795771285e-01 
  7.761403305117e-01 
  8.263010838949e-01 
  7.848516253335e-01 
  8.350123787167e-01 
  8.437236735385e-01 
  7.672664563630e-01 
  7.441842318393e-01 
  7.211020073155e-01 
  3.905709817309e-01 
  3.674887572071e-01 
  1.387550709875e-02 
  8.087119878234e-01 
  7.913394283937e-01 
  7.739668689640e-01 
  7.620745389194e-01 
  7.447019794897e-01 
  7.154370900153e-01 
  8.059071077742e-01 
  7.538688856407e-01 
  7.018306635072e-01 
  8.289451773094e-01 
  7.769069551759e-01 
  8.519832468447e-01 
  8.650340507525e-01 
  7.273764467987e-01 
  5.897188428449e-01 
  7.500834636849e-01 
  6.124258597311e-01 
  6.351328766173e-01 
  4.556372216563e-01 
  4.780426371501e-01 
  5.004480526439e-01 
  5.451889707660e-01 
  5.675943862598e-01 
  6.347407198757e-01 
  7.008251357948e-01 
  7.119408132866e-01 
  7.230564907784e-01 
  7.350076308949e-01 
  7.461233083867e-01 
  7.691901259950e-01 
 -1.311359346379e-03 
  1.645761260292e-01 
  3.304636114048e-01 
  8.073918309582e-03 
  1.739614036852e-01 
  1.745919596554e-02 
  3.246680748706e-01 
  4.026305883542e-01 
  4.805931018378e-01 
  4.231350736887e-01 
  5.010975871723e-01 
  5.216020725068e-01 
  4.594437440619e-01 
  2.316774825834e-01 
  3.911221104958e-03 
  2.312966435001e-01 
  3.530382021614e-03 
  3.149542938270e-03 
 -1.493145768564e-02 
  2.878536729977e-02 
  7.250219228518e-02 
  8.665824034763e-02 
  1.303750653330e-01 
  1.882479383809e-01 
  7.566336189527e-03 
 -3.483664388131e-03 
 -1.453366496579e-02 
  1.591317819433e-01 
  1.480817813656e-01 
  3.106972276970e-01 
  3.077503099752e-01 
  1.547577062045e-01 
  1.765102433830e-03 
  2.765140352924e-01 
  1.235214315217e-01 
  2.452777606097e-01 
  3.269066812941e-01 
  4.313622495679e-01 
  5.358178178418e-01 
  1.754038955437e-01 
  2.798594638176e-01 
  2.390110979336e-02 
 -2.065456229850e-02 
  8.110191080876e-02 
  1.828583839160e-01 
  1.438586557742e-01 
  2.456151288814e-01 
  3.083718738468e-01 
  6.901597858575e-03 
  7.905383190389e-03 
  8.909168522204e-03 
  3.883604466099e-01 
  3.893642319417e-01 
  7.698192953612e-01 
  1.329414988574e-02 
  3.670705588384e-01 
  7.208469677911e-01 
  6.925711264418e-03 
  3.607021202171e-01 
  5.572726431012e-04 
  4.891098492812e-01 
  2.445211460299e-01 
 -6.755722126235e-05 
  4.447155621155e-01 
  2.001268588643e-01 
  4.003212749499e-01 
  6.018896606268e-03 
  2.852818572313e-01 
  5.645448178564e-01 
  1.644761150719e-02 
  2.957105721322e-01 
  2.687632640811e-02 
  2.048440982471e-02 
  3.601272348108e-01 
  6.997700597968e-01 
  3.904629201837e-01 
  7.301057451698e-01 
  7.604414305427e-01 
  4.564341313645e-01 
  2.328501107298e-01 
  9.266090095146e-03 
  4.777331590911e-01 
  2.541491384564e-01 
  4.990321868177e-01 
  2.705529839445e-01 
  1.359463065209e-01 
  1.339629097428e-03 
  1.373340814775e-01 
  2.727404053974e-03 
  4.115179010520e-03 
  3.902217056277e-02 
  2.973756287600e-01 
  5.557290869572e-01 
  3.683162433758e-01 
  6.266697015730e-01 
  6.976103161889e-01 
  5.337333282231e-01 
  5.657661730900e-01 
  5.977990179569e-01 
  6.170596106979e-01 
  6.490924555648e-01 
  7.003858931728e-01 
  3.674245623820e-01 
  1.882045076710e-01 
  8.984452959906e-03 
  4.073536459963e-01 
  2.281335912853e-01 
  4.472827296107e-01 
  8.637260921207e-01 
  7.474481311802e-01 
  6.311701702396e-01 
  7.779112930863e-01 
  6.616333321458e-01 
  6.920964940520e-01 
  5.256246114860e-01 
  5.023847166953e-01 
  4.791448219047e-01 
  5.631143802434e-01 
  5.398744854527e-01 
  6.006041490008e-01 
  1.953926005067e-03 
  5.332317320311e-03 
  8.710708635554e-03 
  1.865506416237e-01 
  1.899290329389e-01 
  3.711473572423e-01 
  6.338565028211e-02 
  2.828857134715e-02 
 -6.808507587822e-03 
  2.913406372017e-02 
 -5.963015214801e-03 
 -5.117522841780e-03 
  5.699582070478e-01 
  5.863922719475e-01 
  6.028263368471e-01 
  5.524472005945e-01 
  5.688812654942e-01 
  5.349361941412e-01 
  6.051434356984e-01 
  6.147075763139e-01 
  6.242717169295e-01 
  6.165702389485e-01 
  6.261343795641e-01 
  6.279970421986e-01 
  6.232701841758e-01 
  5.935231906983e-01 
  5.637761972208e-01 
  5.924357069384e-01 
  5.626887134609e-01 
  5.616012297010e-01 
  5.646479035991e-01 
  5.933740609809e-01 
  6.221002183628e-01 
  5.829658991423e-01 
  6.116920565241e-01 
  6.012838946854e-01 
  5.606619338615e-01 
  5.629806281850e-01 
  5.652993225084e-01 
  4.993431781788e-01 
  5.016618725023e-01 
  4.380244224961e-01 
 -7.257908105655e-02 
 -1.080374187336e-01 
 -1.434957564107e-01 
 -1.580850042028e-02 
 -5.126683809735e-02 
  4.096208021599e-02 
  6.058325398440e-01 
  5.507947996221e-01 
  4.957570594003e-01 
  5.666360979757e-01 
  5.115983577538e-01 
  5.274396561074e-01 
  6.058718184281e-01 
  5.989303191716e-01 
  5.919888199152e-01 
  5.529851980400e-01 
  5.460436987836e-01 
  5.000985776519e-01 
  3.723252192630e-01 
  4.501383514448e-01 
  5.279514836265e-01 
  4.318226685524e-01 
  5.096358007341e-01 
  4.913201178417e-01 
  5.029670650217e-01 
  4.407076288592e-01 
  3.784481926968e-01 
  4.198815791461e-01 
  3.576221429837e-01 
  3.367960932706e-01 
  5.266854774614e-01 
  5.088254452330e-01 
  4.909654130046e-01 
  5.318954936723e-01 
  5.140354614439e-01 
  5.371055098831e-01 
  4.908736024627e-01 
  5.067480977453e-01 
  5.226225930278e-01 
  4.321654956852e-01 
  4.480399909678e-01 
  3.734573889077e-01 
  5.648921566348e-01 
  5.495434828472e-01 
  5.341948090597e-01 
  5.903479743993e-01 
  5.749993006117e-01 
  6.158037921637e-01 
  5.316631007010e-01 
  5.329304497798e-01 
  5.341977988586e-01 
  5.511942989894e-01 
  5.524616480682e-01 
  5.707254972778e-01 
  3.794860451750e-01 
  3.606471989669e-01 
  3.418083527588e-01 
  2.930013003898e-01 
  2.741624541817e-01 
  2.065165556046e-01 
  3.730498580817e-01 
  4.303288815776e-01 
  4.876079050735e-01 
  3.557087149428e-01 
  4.129877384387e-01 
  3.383675718038e-01 
  4.850733949086e-01 
  4.246934260214e-01 
  3.643134571341e-01 
  4.132330401395e-01 
  3.528530712522e-01 
  3.413926853703e-01 
  5.691473294059e-01 
  5.545321375257e-01 
  5.399169456456e-01 
  5.464311907231e-01 
  5.318159988430e-01 
  5.237150520403e-01 
  4.373488170445e-01 
  4.318452660536e-01 
  4.263417150627e-01 
  3.429992604620e-01 
  3.374957094711e-01 
  2.486497038795e-01 
  4.383867216710e-01 
  5.028647375183e-01 
  5.673427533656e-01 
  4.340967495700e-01 
  4.985747654173e-01 
  4.298067774689e-01 
  2.466918313668e-01 
  2.457157712933e-01 
  2.447397112197e-01 
  1.231267368023e-01 
  1.221506767287e-01 
 -4.383577622512e-04 
  2.471053461682e-01 
  2.472730923060e-01 
  2.474408384439e-01 
  3.370653217557e-01 
  3.372330678936e-01 
  4.270252973432e-01 
  3.167586744337e-01 
  1.605563652605e-01 
  4.354056087329e-03 
  1.584069734568e-01 
  2.204664283616e-03 
  5.527247990246e-05 
  2.259449879744e-02 
  1.148240490479e-02 
  3.703110121495e-04 
  2.541200278869e-01 
  2.430079339942e-01 
  4.856455569763e-01 
  4.271550558045e-01 
  4.144240749164e-01 
  4.016930940284e-01 
  3.375965007563e-01 
  3.248655198683e-01 
  2.480379457082e-01 
  4.389139752642e-01 
  2.204376469103e-01 
  1.961318556423e-03 
  2.365094811112e-01 
  1.803315275732e-02 
  3.410498695821e-02 
  5.205672104608e-01 
  5.403856702048e-01 
  5.602041299488e-01 
  4.902688197480e-01 
  5.100872794920e-01 
  4.599704290352e-01 
  5.583932348274e-01 
  5.406309912933e-01 
  5.228687477593e-01 
  5.488001411562e-01 
  5.310378976222e-01 
  5.392070474851e-01 
  3.977546621631e-01 
  4.299492888199e-01 
  4.621439154766e-01 
  3.544055830681e-01 
  3.866002097249e-01 
  3.110565039732e-01 
  4.591167457905e-01 
  4.291417442199e-01 
  3.991667426494e-01 
  4.890249709872e-01 
  4.590499694167e-01 
  5.189331961840e-01 
  3.127953498250e-01 
  3.893797824210e-01 
  4.659642150170e-01 
  3.657423170768e-01 
  4.423267496728e-01 
  4.186892843286e-01 
  4.012743648895e-01 
  3.544985938196e-01 
  3.077228227497e-01 
  3.241607148141e-01 
  2.773849437442e-01 
  2.470470647388e-01 
  5.585026328344e-01 
  5.577535572048e-01 
  5.570044815751e-01 
  5.096354799092e-01 
  5.088864042796e-01 
  4.607683269840e-01 
  5.183412342578e-01 
  4.599499841126e-01 
  4.015587339674e-01 
  4.725829905248e-01 
  4.141917403796e-01 
  4.268247467918e-01 
  5.670627126165e-01 
  5.421486948432e-01 
  5.172346770698e-01 
  4.969648029315e-01 
  4.720507851582e-01 
  4.268668932466e-01 
  3.173011447791e-01 
  3.626735118610e-01 
  4.080458789429e-01 
  1.601556544506e-01 
  2.055280215326e-01 
  3.010164122231e-03 
  5.297361770603e-01 
  5.114241825924e-01 
  4.931121881244e-01 
  5.720562922668e-01 
  5.537442977989e-01 
  6.143764074734e-01 
 -5.150170728129e-02 
 -2.842558001582e-02 
 -5.349452750356e-03 
 -9.407658834666e-02 
 -7.100046108119e-02 
 -1.366514694120e-01 
  6.742294799820e-02 
  2.984739489463e-02 
 -7.728158208940e-03 
  1.341094296161e-01 
  9.653387651256e-02 
  2.007959112341e-01 
  6.154701111628e-02 
  2.778266423693e-02 
 -5.981682642418e-03 
  2.867060571553e-02 
 -5.093741163822e-03 
 -4.205799685226e-03 
  2.056924651383e-01 
  1.028417330513e-01 
 -8.999035608974e-06 
  2.633585324320e-01 
  1.605078003450e-01 
  3.210245997257e-01 
  4.962055558772e-01 
  4.065656298333e-01 
  3.169257037894e-01 
  2.449033269029e-01 
  1.552634008590e-01 
 -6.398902071351e-03 
  5.141039207295e-01 
  5.711588715689e-01 
  6.282138224083e-01 
  5.094097822462e-01 
  5.664647330856e-01 
  5.047156437629e-01 
  5.036913418034e-01 
  5.071586808736e-01 
  5.106260199437e-01 
  4.149381172767e-01 
  4.184054563469e-01 
  3.261848927500e-01 
  2.867254593010e-03 
  1.033056242354e-01 
  2.037439938777e-01 
 -5.980635731612e-04 
  9.984030606920e-02 
 -4.063381739332e-03 
  3.827702666292e-01 
  2.937707263676e-01 
  2.047711861061e-01 
  3.562743516878e-01 
  2.672748114262e-01 
  3.297784367464e-01 
 -1.805525654249e-03 
  5.919228057372e-03 
  1.364398176899e-02 
  2.496503554816e-01 
  2.573751091932e-01 
  5.011062366174e-01 
  5.094573691226e-01 
  2.606960968852e-01 
  1.193482464776e-02 
  5.077257987703e-01 
  2.589645265328e-01 
  5.059942284179e-01 
  2.850489843038e-01 
  2.065144640938e-01 
  1.279799438839e-01 
  4.375990810267e-01 
  3.590645608167e-01 
  5.901491777495e-01 
  2.509988274653e-01 
  1.271861878117e-01 
  3.373548158133e-03 
  2.230409733528e-01 
  9.922833369920e-02 
  1.950831192403e-01 
  7.210368877200e-01 
  3.635929113915e-01 
  6.148935063023e-03 
  3.703625285492e-01 
  1.291855222070e-02 
  1.968816937838e-02 
  6.976967591675e-01 
  3.487487786831e-01 
 -1.992018012881e-04 
  3.589709577413e-01 
  1.002297725694e-02 
  2.024515631516e-02 
  4.565942865595e-01 
  2.344000711024e-01 
  1.220585564536e-02 
  4.233610525967e-01 
  2.011668371396e-01 
  3.901278186339e-01 
  4.929087237780e-01 
  2.489761453521e-01 
  5.043566926151e-03 
  5.848072649662e-01 
  3.408746865402e-01 
  6.767058061543e-01 
  5.699455671619e-01 
  5.356661224169e-01 
  5.013866776719e-01 
  5.029365179626e-01 
  4.686570732176e-01 
  4.359274687633e-01 
  7.726971205418e-01 
  3.904108136252e-01 
  8.124506708643e-03 
  3.863140752138e-01 
  4.027768297250e-03 
 -6.897011414253e-05 
  6.230539050471e-01 
  6.537654007574e-01 
  6.844768964677e-01 
  6.808645773604e-01 
  7.115760730707e-01 
  7.386752496736e-01 
  6.739598450351e-01 
  6.526826057999e-01 
  6.314053665648e-01 
  5.890045620882e-01 
  5.677273228530e-01 
  5.040492791412e-01 
  5.785993286327e-01 
  4.978516728004e-01 
  4.171040169682e-01 
  5.686983906004e-01 
  4.879507347682e-01 
  5.587974525681e-01 
  4.208676012956e-01 
  4.426211165950e-01 
  4.643746318944e-01 
  4.892412445527e-01 
  5.109947598521e-01 
  5.576148878097e-01 
  5.674690976124e-01 
  5.630593743297e-01 
  5.586496510470e-01 
  6.521206911668e-01 
  6.477109678841e-01 
  7.367722847211e-01 
  7.375934738688e-01 
  7.805339357337e-01 
  8.234743975986e-01 
  6.510133482017e-01 
  6.939538100666e-01 
  5.644332225346e-01 
  7.393016704051e-01 
  7.168119058245e-01 
  6.943221412439e-01 
  7.563015708510e-01 
  7.338118062704e-01 
  7.733014712968e-01 
  6.159333822855e-01 
  6.735553918846e-01 
  7.311774014837e-01 
  5.874461557594e-01 
  6.450681653584e-01 
  5.589589292332e-01 
  7.670620183135e-01 
  7.515722082196e-01 
  7.360823981258e-01 
  8.012870622428e-01 
  7.857972521490e-01 
  8.355121061722e-01 
  7.712500605580e-01 
  7.428908307601e-01 
  7.145316009622e-01 
  4.005227699298e-01 
  3.721635401318e-01 
  2.979547930147e-02 
  5.961505256436e-01 
  7.126731586527e-01 
  8.291957916618e-01 
  7.308293812505e-01 
  8.473520142596e-01 
  8.655082368574e-01 
  8.285673054036e-01 
  7.099392554955e-01 
  5.913112055875e-01 
  6.944186341747e-01 
  5.757905842666e-01 
  5.602699629458e-01 
  4.845118364436e-01 
  5.331647171418e-01 
  5.818175978400e-01 
  5.625344781183e-01 
  6.111873588165e-01 
  6.405571197930e-01 
  5.811206282720e-01 
  5.323478491092e-01 
  4.835750699464e-01 
  4.965818023559e-01 
  4.478090231930e-01 
  4.120429764397e-01 
  8.459044111394e-01 
  8.412863355083e-01 
  8.366682598772e-01 
  7.882486881254e-01 
  7.836306124943e-01 
  7.305929651115e-01 
  7.711141915273e-01 
  7.969147886267e-01 
  8.227153857262e-01 
  7.545544454868e-01 
  7.803550425863e-01 
  7.379946994464e-01 
  1.163287361392e-02 
  3.736711488130e-01 
  7.357094240121e-01 
  3.892893518488e-01 
  7.513276270479e-01 
  7.669458300837e-01 