# vtk DataFile Version 2
NuDG++ 2D simulation
ASCII
DATASET UNSTRUCTURED_GRID

POINTS 2244 double
 -1.656250060000e-01  -2.000000030000e-01  0.0
 -1.828125045000e-01  -1.772221997500e-01  0.0
 -2.000000030000e-01  -1.544443965000e-01  0.0
 -1.828125045000e-01  -2.000000030000e-01  0.0
 -2.000000030000e-01  -1.772221997500e-01  0.0
 -2.000000030000e-01  -2.000000030000e-01  0.0
 -6.428571790000e-02  -1.700000018000e-01  0.0
 -8.058035746000e-02  -1.850000024000e-01  0.0
 -9.687499702000e-02  -2.000000030000e-01  0.0
 -6.339285895000e-02  -1.850000024000e-01  0.0
 -7.968749851000e-02  -2.000000030000e-01  0.0
 -6.250000000000e-02  -2.000000030000e-01  0.0
 -2.000000030000e-01  -1.544443965000e-01  0.0
 -1.750000045000e-01  -1.379364989500e-01  0.0
 -1.500000060000e-01  -1.214286014000e-01  0.0
 -2.000000030000e-01  -1.316666491500e-01  0.0
 -1.750000045000e-01  -1.151587516000e-01  0.0
 -2.000000030000e-01  -1.088889018000e-01  0.0
 -1.500000060000e-01  -1.214286014000e-01  0.0
 -1.750000045000e-01  -1.379364989500e-01  0.0
 -2.000000030000e-01  -1.544443965000e-01  0.0
 -1.500000060000e-01  -1.457143016000e-01  0.0
 -1.750000045000e-01  -1.622221991500e-01  0.0
 -1.500000060000e-01  -1.700000018000e-01  0.0
 -1.500000060000e-01  -7.285714149000e-02  0.0
 -1.750000045000e-01  -9.087302164500e-02  0.0
 -2.000000030000e-01  -1.088889018000e-01  0.0
 -1.500000060000e-01  -9.714287144500e-02  0.0
 -1.750000045000e-01  -1.151587516000e-01  0.0
 -1.500000060000e-01  -1.214286014000e-01  0.0
  1.832975030000e+00  -4.625000060000e-02  0.0
  1.853987515000e+00  -1.231250018000e-01  0.0
  1.875000000000e+00  -2.000000030000e-01  0.0
  1.916487515000e+00  -7.187499851000e-02  0.0
  1.937500000000e+00  -1.487499997100e-01  0.0
  2.000000000000e+00  -9.749999642000e-02  0.0
 -1.500000060000e-01  -1.700000018000e-01  0.0
 -1.360000037000e-01  -1.525000036000e-01  0.0
 -1.220000014000e-01  -1.350000054000e-01  0.0
 -1.500000060000e-01  -1.457143016000e-01  0.0
 -1.360000037000e-01  -1.282143034000e-01  0.0
 -1.500000060000e-01  -1.214286014000e-01  0.0
  2.849999964000e-01  -2.333333530000e-02  0.0
  2.837499976000e-01  -8.166666795000e-02  0.0
  2.824999988000e-01  -1.400000006000e-01  0.0
  3.174999952000e-01  -4.666666780000e-02  0.0
  3.162499964000e-01  -1.050000004500e-01  0.0
  3.499999940000e-01  -7.000000030000e-02  0.0
 -1.071429029000e-01  -1.700000018000e-01  0.0
 -8.571431040000e-02  -1.700000018000e-01  0.0
 -6.428571790000e-02  -1.700000018000e-01  0.0
 -9.857145324000e-02  -1.525000036000e-01  0.0
 -7.714286074000e-02  -1.525000036000e-01  0.0
 -9.000000358000e-02  -1.350000054000e-01  0.0
 -1.312499940000e-01  -2.000000030000e-01  0.0
 -1.191964484500e-01  -1.850000024000e-01  0.0
 -1.071429029000e-01  -1.700000018000e-01  0.0
 -1.406250000000e-01  -1.850000024000e-01  0.0
 -1.285714544500e-01  -1.700000018000e-01  0.0
 -1.500000060000e-01  -1.700000018000e-01  0.0
 -1.220000014000e-01  -1.350000054000e-01  0.0
 -1.060000024900e-01  -1.350000054000e-01  0.0
 -9.000000358000e-02  -1.350000054000e-01  0.0
 -1.185000017500e-01  -1.175000034500e-01  0.0
 -1.025000028400e-01  -1.175000034500e-01  0.0
 -1.150000021000e-01  -1.000000015000e-01  0.0
 -9.000000358000e-02  -1.350000054000e-01  0.0
 -1.060000024900e-01  -1.350000054000e-01  0.0
 -1.220000014000e-01  -1.350000054000e-01  0.0
 -9.857145324000e-02  -1.525000036000e-01  0.0
 -1.145714521500e-01  -1.525000036000e-01  0.0
 -1.071429029000e-01  -1.700000018000e-01  0.0
 -7.778175920000e-02  -9.192386270000e-02  0.0
 -9.639088065000e-02  -9.596193210000e-02  0.0
 -1.150000021000e-01  -1.000000015000e-01  0.0
 -8.389088139000e-02  -1.134619340500e-01  0.0
 -1.025000028400e-01  -1.175000034500e-01  0.0
 -9.000000358000e-02  -1.350000054000e-01  0.0
 -1.220000014000e-01  -1.350000054000e-01  0.0
 -1.185000017500e-01  -1.175000034500e-01  0.0
 -1.150000021000e-01  -1.000000015000e-01  0.0
 -1.360000037000e-01  -1.282143034000e-01  0.0
 -1.325000040500e-01  -1.107143014500e-01  0.0
 -1.500000060000e-01  -1.214286014000e-01  0.0
 -7.778175920000e-02  -9.192386270000e-02  0.0
 -8.389088139000e-02  -1.134619340500e-01  0.0
 -9.000000358000e-02  -1.350000054000e-01  0.0
 -6.639088876500e-02  -1.022535823500e-01  0.0
 -7.250001095500e-02  -1.237916537000e-01  0.0
 -5.500001833000e-02  -1.125833020000e-01  0.0
 -1.071429029000e-01  -1.700000018000e-01  0.0
 -1.145714521500e-01  -1.525000036000e-01  0.0
 -1.220000014000e-01  -1.350000054000e-01  0.0
 -1.285714544500e-01  -1.700000018000e-01  0.0
 -1.360000037000e-01  -1.525000036000e-01  0.0
 -1.500000060000e-01  -1.700000018000e-01  0.0
  6.250000093000e-03  -2.000000030000e-01  0.0
  4.062500153650e-02  -2.000000030000e-01  0.0
  7.500000298000e-02  -2.000000030000e-01  0.0
  1.383928512150e-02  -1.850000024000e-01  0.0
  4.821428656500e-02  -1.850000024000e-01  0.0
  2.142857015000e-02  -1.700000018000e-01  0.0
 -1.500000060000e-01  -7.285714149000e-02  0.0
 -1.500000060000e-01  -9.714287144500e-02  0.0
 -1.500000060000e-01  -1.214286014000e-01  0.0
 -1.325000040500e-01  -8.642857149500e-02  0.0
 -1.325000040500e-01  -1.107143014500e-01  0.0
 -1.150000021000e-01  -1.000000015000e-01  0.0
 -2.000000030000e-01  -6.333333254000e-02  0.0
 -1.750000045000e-01  -6.809523701500e-02  0.0
 -1.500000060000e-01  -7.285714149000e-02  0.0
 -1.750000045000e-01  -4.380952660000e-02  0.0
 -1.500000060000e-01  -4.857143107500e-02  0.0
 -1.500000060000e-01  -2.428572066000e-02  0.0
 -2.000000030000e-01  -6.333333254000e-02  0.0
 -2.000000030000e-01  -8.611111717000e-02  0.0
 -2.000000030000e-01  -1.088889018000e-01  0.0
 -1.750000045000e-01  -6.809523701500e-02  0.0
 -1.750000045000e-01  -9.087302164500e-02  0.0
 -1.500000060000e-01  -7.285714149000e-02  0.0
 -2.000000030000e-01  -6.333333254000e-02  0.0
 -1.750000045000e-01  -4.380952660000e-02  0.0
 -1.500000060000e-01  -2.428572066000e-02  0.0
 -2.000000030000e-01  -4.055555630500e-02  0.0
 -1.750000045000e-01  -2.103175036500e-02  0.0
 -2.000000030000e-01  -1.777778007000e-02  0.0
 -1.500000060000e-01  -2.428572066000e-02  0.0
 -1.500000060000e-01  -4.857143107500e-02  0.0
 -1.500000060000e-01  -7.285714149000e-02  0.0
 -1.281259023000e-01  -2.896608505500e-02  0.0
 -1.281259023000e-01  -5.325179547000e-02  0.0
 -1.062517986000e-01  -3.364644945000e-02  0.0
 -1.099999994000e-01   1.996667010000e-08  0.0
 -1.300000027000e-01  -1.214285034666e-02  0.0
 -1.500000060000e-01  -2.428572066000e-02  0.0
 -1.081258990000e-01  -1.682321474166e-02  0.0
 -1.281259023000e-01  -2.896608505500e-02  0.0
 -1.062517986000e-01  -3.364644945000e-02  0.0
 -1.500000060000e-01  -2.428572066000e-02  0.0
 -1.500000060000e-01   0.000000000000e+00  0.0
 -1.500000060000e-01   2.428572066000e-02  0.0
 -1.750000045000e-01  -2.103175036500e-02  0.0
 -1.750000045000e-01   3.253970295000e-03  0.0
 -2.000000030000e-01  -1.777778007000e-02  0.0
 -1.500000060000e-01  -7.285714149000e-02  0.0
 -1.226314045700e-01  -6.892856210000e-02  0.0
 -9.526280314000e-02  -6.499998271000e-02  0.0
 -1.281259023000e-01  -5.325179547000e-02  0.0
 -1.007573008700e-01  -4.932321608000e-02  0.0
 -1.062517986000e-01  -3.364644945000e-02  0.0
  3.499999940000e-01   1.400000006000e-01  0.0
  4.021931737500e-01   1.224999986500e-01  0.0
  4.543863535000e-01   1.049999967000e-01  0.0
  4.187500029500e-01   1.749999970000e-01  0.0
  4.709431827000e-01   1.574999950500e-01  0.0
  4.875000119000e-01   2.099999934000e-01  0.0
 -7.101409137000e-02  -4.349999130000e-02  0.0
 -8.313844725500e-02  -5.424998700500e-02  0.0
 -9.526280314000e-02  -6.499998271000e-02  0.0
 -6.449843011500e-02  -5.250913650000e-02  0.0
 -7.662278600000e-02  -6.325913220500e-02  0.0
 -5.798276886000e-02  -6.151828170000e-02  0.0
 -9.526280314000e-02  -6.499998271000e-02  0.0
 -1.226314045700e-01  -6.892856210000e-02  0.0
 -1.500000060000e-01  -7.285714149000e-02  0.0
 -1.051314026200e-01  -8.249999210500e-02  0.0
 -1.325000040500e-01  -8.642857149500e-02  0.0
 -1.150000021000e-01  -1.000000015000e-01  0.0
 -6.181925908000e-02  -1.656441018000e-02  0.0
 -7.051259093000e-02  -1.954082492500e-02  0.0
 -7.920592278000e-02  -2.251723967000e-02  0.0
 -5.862244405000e-02  -2.428220026000e-02  0.0
 -6.731577590000e-02  -2.725861500500e-02  0.0
 -5.542562902000e-02  -3.199999034000e-02  0.0
 -7.920592278000e-02  -2.251723967000e-02  0.0
 -9.272886069000e-02  -2.808184456000e-02  0.0
 -1.062517986000e-01  -3.364644945000e-02  0.0
 -7.511000707500e-02  -3.300861548500e-02  0.0
 -8.863294498500e-02  -3.857322037500e-02  0.0
 -7.101409137000e-02  -4.349999130000e-02  0.0
 -7.101409137000e-02  -4.349999130000e-02  0.0
 -6.321986019500e-02  -3.774999082000e-02  0.0
 -5.542562902000e-02  -3.199999034000e-02  0.0
 -7.511000707500e-02  -3.300861548500e-02  0.0
 -6.731577590000e-02  -2.725861500500e-02  0.0
 -7.920592278000e-02  -2.251723967000e-02  0.0
 -7.920592278000e-02  -2.251723967000e-02  0.0
 -9.460296109000e-02  -1.125860985166e-02  0.0
 -1.099999994000e-01   1.996667010000e-08  0.0
 -9.272886069000e-02  -2.808184456000e-02  0.0
 -1.081258990000e-01  -1.682321474166e-02  0.0
 -1.062517986000e-01  -3.364644945000e-02  0.0
 -7.778175920000e-02  -9.192386270000e-02  0.0
 -6.788226403000e-02  -7.672107220000e-02  0.0
 -5.798276886000e-02  -6.151828170000e-02  0.0
 -8.652228117000e-02  -7.846192270500e-02  0.0
 -7.662278600000e-02  -6.325913220500e-02  0.0
 -9.526280314000e-02  -6.499998271000e-02  0.0
 -7.101409137000e-02  -4.349999130000e-02  0.0
 -8.863294498500e-02  -3.857322037500e-02  0.0
 -1.062517986000e-01  -3.364644945000e-02  0.0
 -8.313844725500e-02  -5.424998700500e-02  0.0
 -1.007573008700e-01  -4.932321608000e-02  0.0
 -9.526280314000e-02  -6.499998271000e-02  0.0
 -7.778175920000e-02  -9.192386270000e-02  0.0
 -8.652228117000e-02  -7.846192270500e-02  0.0
 -9.526280314000e-02  -6.499998271000e-02  0.0
 -9.639088065000e-02  -9.596193210000e-02  0.0
 -1.051314026200e-01  -8.249999210500e-02  0.0
 -1.150000021000e-01  -1.000000015000e-01  0.0
[...]
POINT_DATA 2244
SCALARS field1 double 1
LOOKUP_TABLE default
  2.198629282222e-03 
  6.416201049109e-02 
  1.261253917000e-01 
  1.231468774489e-03 
  6.319484998336e-02 
  2.643082667551e-04 
  2.382813092445e-01 
  1.193942636589e-01 
  5.072180732334e-04 
  1.200189650031e-01 
  1.131919417514e-03 
  1.756620761795e-03 
  1.243776293882e-01 
  1.609722066992e-01 
  1.975667840101e-01 
  1.716291930798e-01 
  2.082237703907e-01 
  2.188807567714e-01 
  1.991874685693e-01 
  1.612838108943e-01 
  1.233801532193e-01 
  1.564318130426e-01 
  1.185281553676e-01 
  1.136761575158e-01 
  2.693821326315e-01 
  2.442054729393e-01 
  2.190288132470e-01 
  2.350612463676e-01 
  2.098845866754e-01 
  2.007403601037e-01 
  2.610648972381e-01 
  1.445037524958e-01 
  2.794260775351e-02 
  2.512119577571e-01 
  1.346508130148e-01 
  2.413590182760e-01 
  1.145625468954e-01 
  1.578954516803e-01 
  2.012283564652e-01 
  1.574780587548e-01 
  2.008109635397e-01 
  2.003935706143e-01 
  2.400186671455e-01 
  2.514679662072e-01 
  2.629172652689e-01 
  2.473294297254e-01 
  2.587787287872e-01 
  2.546401923054e-01 
  1.785781874284e-01 
  2.070645496489e-01 
  2.355509118694e-01 
  2.035643678781e-01 
  2.320507300986e-01 
  2.285505483278e-01 
  1.399468599296e-03 
  8.977985978868e-02 
  1.781602509781e-01 
  5.652148334331e-02 
  1.449018745327e-01 
  1.116434980873e-01 
  1.979028340223e-01 
  2.109770367114e-01 
  2.240512394006e-01 
  2.205743544770e-01 
  2.336485571661e-01 
  2.432458749316e-01 
  2.259714102546e-01 
  2.119809880958e-01 
  1.979905659370e-01 
  2.023704239851e-01 
  1.883800018263e-01 
  1.787694377156e-01 
  2.723618721218e-01 
  2.573988972203e-01 
  2.424359223187e-01 
  2.492667357635e-01 
  2.343037608619e-01 
  2.261715994051e-01 
  1.986854787572e-01 
  2.220364653100e-01 
  2.453874518628e-01 
  2.006369456649e-01 
  2.239879322177e-01 
  2.025884125726e-01 
  2.725822697053e-01 
  2.500757110291e-01 
  2.275691523528e-01 
  2.842045220211e-01 
  2.616979633448e-01 
  2.958267743369e-01 
  1.769047058324e-01 
  1.888044300044e-01 
  2.007041541763e-01 
  1.452606243591e-01 
  1.571603485311e-01 
  1.136165428859e-01 
  1.645745521060e-03 
  2.424865467834e-03 
  3.203985414608e-03 
  1.461078964978e-01 
  1.468870164446e-01 
  2.905700474746e-01 
  2.690374974409e-01 
  2.357075025982e-01 
  2.023775077555e-01 
  2.577312619733e-01 
  2.244012671307e-01 
  2.464250265058e-01 
  2.835961410573e-01 
  2.751653114235e-01 
  2.667344817897e-01 
  2.895365069754e-01 
  2.811056773416e-01 
  2.954768728935e-01 
  2.828157080573e-01 
  2.515111101452e-01 
  2.202065122331e-01 
  2.753364151306e-01 
  2.440318172185e-01 
  2.678571222039e-01 
  2.844666522286e-01 
  2.901947070417e-01 
  2.959227618548e-01 
  3.000250816201e-01 
  3.057531364332e-01 
  3.155835110116e-01 
  2.953450898583e-01 
  2.821759070939e-01 
  2.690067243294e-01 
  2.685111292328e-01 
  2.553419464684e-01 
  2.416771686073e-01 
  2.205600595574e-01 
  2.580739273601e-01 
  2.955877951627e-01 
  2.300873811393e-01 
  2.676012489419e-01 
  2.396147027211e-01 
  2.922179964772e-01 
  2.939227780316e-01 
  2.956275595861e-01 
  3.042942001470e-01 
  3.059989817015e-01 
  3.163704038168e-01 
  2.684500445945e-01 
  2.577864612093e-01 
  2.471228778241e-01 
  2.545554928724e-01 
  2.438919094872e-01 
  2.406609411502e-01 
  2.622898713947e-01 
  2.813570102901e-01 
  3.004241491855e-01 
  1.526129424113e-01 
  1.716800813066e-01 
  4.293601342783e-02 
  2.082539595048e-01 
  2.299180331948e-01 
  2.515821068848e-01 
  2.385836743198e-01 
  2.602477480098e-01 
  2.689133891348e-01 
  2.481753826998e-01 
  2.583616243680e-01 
  2.685478660362e-01 
  2.474180795192e-01 
  2.576043211874e-01 
  2.466607763386e-01 
  7.409230711395e-02 
  1.182788558540e-01 
  1.624654045941e-01 
  9.643503885202e-02 
  1.406215875921e-01 
  1.187777705901e-01 
  1.584906005437e-01 
  1.984813081174e-01 
  2.384720156911e-01 
  1.833039212345e-01 
  2.232946288083e-01 
  2.081172419254e-01 
  2.077717134998e-01 
  1.643718295402e-01 
  1.209719455807e-01 
  1.841782932460e-01 
  1.407784092864e-01 
  1.605848729922e-01 
  1.573683713283e-01 
  1.876461615377e-01 
  2.179239517471e-01 
  1.982411348635e-01 
  2.285189250729e-01 
  2.391138983987e-01 
  2.733441048667e-01 
  2.720856460929e-01 
  2.708271873190e-01 
  2.619618900852e-01 
  2.607034313114e-01 
  2.505796753037e-01 
  2.094876009964e-01 
  2.241489657013e-01 
  2.388103304062e-01 
  2.305664801280e-01 
  2.452278448329e-01 
  2.516453592596e-01 
  2.705964881748e-01 
  2.599186731692e-01 
  2.492408581636e-01 
  2.573460753712e-01 
  2.466682603656e-01 
  2.440956625677e-01 
  1.609076645661e-01 
  1.179252793224e-01 
  7.494289407863e-02 
  1.494225209769e-01 
  1.064401357332e-01 
  1.379373773877e-01 
  2.940733586725e-01 
  2.615026201579e-01 
  2.289318816433e-01 
  2.651433962896e-01 
  2.325726577750e-01 
  2.362134339067e-01 
  2.428962042602e-01 
  2.479355972334e-01 
  2.529749902066e-01 
  2.347090436192e-01 
  2.397484365924e-01 
  2.265218829782e-01 
  3.112958980283e-01 
  2.933980701181e-01 
  2.755002422080e-01 
  3.221468965714e-01 
  3.042490686613e-01 
  3.329978951145e-01 
  3.083782800772e-01 
  3.002785861926e-01 
  2.921788923081e-01 
  2.724965670579e-01 
  2.643968731734e-01 
  2.366148540386e-01 
  2.722878238323e-01 
  2.974633208590e-01 
  3.226388178858e-01 
  2.713547064785e-01 
  2.965302035053e-01 
  2.704215891248e-01 
  3.238066136328e-01 
  2.980349324540e-01 
  2.722632512753e-01 
  3.100395456003e-01 
  2.842678644215e-01 
  2.962724775678e-01 
  3.726068685254e-01 
  3.492324257486e-01 
  3.258579829719e-01 
  3.330707998961e-01 
  3.096963571193e-01 
  2.935347312667e-01 
  2.751275500764e-01 
  2.724169354527e-01 
  2.697063208291e-01 
  3.009969851549e-01 
  2.982863705313e-01 
  3.268664202335e-01 
  2.917243261421e-01 
  3.011841142157e-01 
  3.106439022892e-01 
  3.326405069999e-01 
  3.421002950735e-01 
  3.735566878577e-01 
  3.105063167741e-01 
  2.738467707393e-01 
  2.371872247045e-01 
  2.926022333724e-01 
  2.559426873376e-01 
  2.746981499707e-01 
  3.978436896384e-01 
  3.865727171459e-01 
  3.753017446535e-01 
  3.550604553080e-01 
  3.437894828156e-01 
  3.122772209777e-01 
  1.415003350763e-03 
  1.500113142125e-01 
  2.986076250742e-01 
  1.773058077276e-04 
  1.487736166695e-01 
 -1.060391735308e-03 
  3.805234816709e-01 
  3.417325907232e-01 
  3.029416997755e-01 
  3.427897599139e-01 
  3.039988689662e-01 
  3.050560381568e-01 
  3.030427497093e-01 
  3.415461681814e-01 
  3.800495866535e-01 
  3.487794419372e-01 
  3.872828604093e-01 
  3.945161341650e-01 
  3.039664607099e-01 
  3.030757029512e-01 
  3.021849451924e-01 
  1.547367191461e-01 
  1.538459613873e-01 
  5.506977582256e-03 
  3.756483395372e-01 
  3.419035821299e-01 
  3.081588247226e-01 
  3.519754215043e-01 
  3.182306640970e-01 
  3.283025034713e-01 
  3.737712132286e-01 
  3.360151344057e-01 
  2.982590555829e-01 
  3.843573933345e-01 
  3.466013145117e-01 
  3.949435734405e-01 
  3.964630913811e-01 
  3.548256588265e-01 
  3.131882262719e-01 
  3.631034235335e-01 
  3.214659909789e-01 
  3.297437556859e-01 
  2.754930141687e-01 
  2.796246637421e-01 
  2.837563133156e-01 
  3.043611518302e-01 
  3.084928014037e-01 
  3.332292894917e-01 
  2.735705791061e-01 
  3.019236445311e-01 
  3.302767099561e-01 
  2.901059191818e-01 
  3.184589846068e-01 
  3.066412592575e-01 
 -1.370432151016e-03 
  6.099561232006e-02 
  1.233616567911e-01 
  2.364618803597e-03 
  6.473066327467e-02 
  6.099669758209e-03 
  1.218828907395e-01 
  1.637424329999e-01 
  2.056019752603e-01 
  1.639913050256e-01 
  2.058508472859e-01 
  2.060997193116e-01 
  2.367327015972e-01 
  1.217086840158e-01 
  6.684666434415e-03 
  1.178360474460e-01 
  2.812029864610e-03 
 -1.060606705194e-03 
 -4.115767234733e-03 
  1.081563184697e-02 
  2.574703092868e-02 
  3.430042719188e-02 
  4.923182627359e-02 
  7.271662161849e-02 
  1.208078015362e-03 
 -1.952563234343e-03 
 -5.113204484049e-03 
  5.854362611839e-02 
  5.538298486868e-02 
  1.158791742214e-01 
  1.980811816693e-01 
  9.970015146884e-02 
  1.319121268401e-03 
  1.648186864817e-01 
  6.643765628128e-02 
  1.315561912942e-01 
  1.226427761408e-01 
  1.665244067381e-01 
  2.104060373354e-01 
  6.541297298616e-02 
  1.092946035834e-01 
  8.183169831482e-03 
 -6.589191256003e-03 
  3.291305408560e-02 
  7.241529942720e-02 
  5.458291056044e-02 
  9.408515590204e-02 
  1.157550123769e-01 
  2.352623709169e-03 
  2.600013355852e-03 
  2.847403002536e-03 
  1.545424237603e-01 
  1.547898134070e-01 
  3.067322238114e-01 
  4.176015387624e-03 
  1.543459850355e-01 
  3.045159546833e-01 
  3.141082203279e-03 
  1.533110518511e-01 
  2.106149018933e-03 
  2.902232933880e-01 
  1.488567034726e-01 
  7.490113557142e-03 
  2.713597813045e-01 
  1.299931913891e-01 
  2.524962692210e-01 
  1.762953568441e-03 
  1.100600408098e-01 
  2.183571280512e-01 
  4.432489534364e-03 
  1.127295767757e-01 
  7.102025500288e-03 
  6.562306238178e-03 
  1.401175687125e-01 
  2.736728311868e-01 
  1.553639796138e-01 
  2.889192420881e-01 
  3.041656529893e-01 
  2.765960170211e-01 
  1.423915083518e-01 
  8.186999682456e-03 
  2.804337701729e-01 
  1.462292615036e-01 
  2.842715233248e-01 
  1.821293376490e-01 
  9.140720683144e-02 
  6.850760139045e-04 
  9.282318445680e-02 
  2.101053639259e-03 
  3.517031264614e-03 
  1.122196151933e-02 
  1.132917643068e-01 
  2.153615670944e-01 
  1.419741416888e-01 
  2.440439444763e-01 
  2.727263218583e-01 
  2.098365920347e-01 
  2.401870551435e-01 
  2.705375182523e-01 
  2.419040480093e-01 
  2.722545111181e-01 
  2.739715039840e-01 
  2.411276946042e-01 
  1.244612362810e-01 
  7.794777957727e-03 
  2.564552263264e-01 
  1.397887680032e-01 
  2.717827580486e-01 
  3.946661296770e-01 
  3.619257615856e-01 
  3.291853934942e-01 
  3.643734579311e-01 
  3.316330898397e-01 
  3.340807861853e-01 
  2.069665642470e-01 
  2.060258348834e-01 
  2.050851055197e-01 
  2.388364115989e-01 
  2.378956822352e-01 
  2.707062589507e-01 
  1.208348738882e-03 
  3.359745387353e-03 
  5.511142035824e-03 
  1.229027495753e-01 
  1.250541462237e-01 
  2.445971504117e-01 
  2.284356375874e-02 
  1.048509170553e-02 
 -1.873380347676e-03 
  1.029298346565e-02 
 -2.065488587560e-03 
 -2.257596827443e-03 
  2.862801396259e-01 
  2.906422419838e-01 
  2.950043443417e-01 
  2.653604136552e-01 
  2.697225160131e-01 
  2.444406876844e-01 
  2.970175189784e-01 
  3.059664383790e-01 
  3.149153577795e-01 
  3.068846439459e-01 
  3.158335633464e-01 
  3.167517689133e-01 
  3.134633148729e-01 
  2.987623889423e-01 
  2.840614630116e-01 
  2.984461154469e-01 
  2.837451895163e-01 
  2.834289160209e-01 
  2.835776061230e-01 
  2.983359776149e-01 
  3.130943491067e-01 
  2.889722936914e-01 
  3.037306651833e-01 
  2.943669812598e-01 
  2.828295568689e-01 
  2.843087024979e-01 
  2.857878481270e-01 
  2.516930924887e-01 
  2.531722381177e-01 
  2.205566281085e-01 
  1.437020105744e-02 
  1.326800795655e-04 
 -1.410484089831e-02 
  1.266195649940e-01 
  1.123820440161e-01 
  2.388689289306e-01 
  2.964946017151e-01 
  2.588611497741e-01 
  2.212276978331e-01 
  2.691481306668e-01 
  2.315146787258e-01 
  2.418016596186e-01 
  2.956666264995e-01 
  2.946783395184e-01 
  2.936900525372e-01 
  2.591872890597e-01 
  2.581990020785e-01 
  2.227079516198e-01 
  1.555218089721e-01 
  1.982102039220e-01 
  2.408985988719e-01 
  1.873253958809e-01 
  2.300137908308e-01 
  2.191289827897e-01 
  2.191158466675e-01 
  1.880581232631e-01 
  1.570003998588e-01 
  1.751217277350e-01 
  1.440640043307e-01 
  1.311276088026e-01 
  2.396793211181e-01 
  2.276680660954e-01 
  2.156568110728e-01 
  2.444868483204e-01 
  2.324755932977e-01 
  2.492943755227e-01 
  2.153637476791e-01 
  2.271476215227e-01 
  2.389314953663e-01 
  1.859971366486e-01 
  1.977810104922e-01 
  1.566305256181e-01 
  2.706679440903e-01 
  2.592452909745e-01 
  2.478226378587e-01 
  2.753608090727e-01 
  2.639381559569e-01 
  2.800536740551e-01 
  2.429476656481e-01 
  2.451183561196e-01 
  2.472890465912e-01 
  2.648948954755e-01 
  2.670655859471e-01 
  2.868421253030e-01 
  1.576032793819e-01 
  1.473947813634e-01 
  1.371862833449e-01 
  1.157482565999e-01 
  1.055397585814e-01 
  7.389323381795e-02 
  1.557190839164e-01 
  1.871510324006e-01 
  2.185829808848e-01 
  1.467320043850e-01 
  1.781639528692e-01 
  1.377449248536e-01 
  2.176563224972e-01 
  1.877275353374e-01 
  1.577987481775e-01 
  1.779871788760e-01 
  1.480583917161e-01 
  1.383180352547e-01 
  2.864208573510e-01 
  2.674801677172e-01 
  2.485394780835e-01 
  2.726369797672e-01 
  2.536962901334e-01 
  2.588531021834e-01 
  2.190526254772e-01 
  2.139061063035e-01 
  2.087595871298e-01 
  1.719333998070e-01 
  1.667868806332e-01 
  1.248141741367e-01 
  2.196079035057e-01 
  2.532603167387e-01 
  2.869127299716e-01 
  2.155594297604e-01 
  2.492118429934e-01 
  2.115109560152e-01 
  1.240407624562e-01 
  1.296410199985e-01 
  1.352412775408e-01 
  6.227077625415e-02 
  6.787103379647e-02 
  5.007900521194e-04 
  1.365929594889e-01 
  1.302551812968e-01 
  1.239174031047e-01 
  1.733992768444e-01 
  1.670614986523e-01 
  2.102055941999e-01 
  2.098856168314e-01 
  1.086341204115e-01 
  7.382623991568e-03 
  1.044481553524e-01 
  3.196658932469e-03 
 -9.893061266306e-04 
  1.946826664406e-02 
  1.127919771958e-02 
  3.090128795097e-03 
  1.489151688264e-01 
  1.407260999019e-01 
  2.783620710088e-01 
  2.122594801765e-01 
  2.092421143457e-01 
  2.062247485149e-01 
  1.741913562812e-01 
  1.711739904504e-01 
  1.361232323858e-01 
  2.499849850708e-01 
  1.235235406369e-01 
 -2.937903797086e-03 
  1.358866576561e-01 
  9.425213222142e-03 
  2.178833024137e-02 
  2.549639874686e-01 
  2.616125147307e-01 
  2.682610419928e-01 
  2.462600523857e-01 
  2.529085796478e-01 
  2.375561173028e-01 
  2.674178035048e-01 
  2.621647630832e-01 
  2.569117226616e-01 
  2.583589255518e-01 
  2.531058851302e-01 
  2.493000475988e-01 
  2.012237325045e-01 
  2.208712689991e-01 
  2.405188054937e-01 
  2.009579812592e-01 
  2.206055177538e-01 
  2.006922300139e-01 
  2.361483116889e-01 
  2.199662227071e-01 
  2.037841337252e-01 
  2.459044522307e-01 
  2.297223632489e-01 
  2.556605927726e-01 
  2.047230693822e-01 
  2.235821645529e-01 
  2.424412597237e-01 
  2.325261281501e-01 
  2.513852233209e-01 
  2.603291869181e-01 
  2.047021456459e-01 
  2.002953012259e-01 
  1.958884568060e-01 
  1.693067742490e-01 
  1.648999298291e-01 
  1.339114028522e-01 
  2.679359543850e-01 
  2.798002175024e-01 
  2.916644806197e-01 
  2.536231706635e-01 
  2.654874337809e-01 
  2.393103869420e-01 
  2.580985258565e-01 
  2.316057424187e-01 
  2.051129589808e-01 
  2.360057414811e-01 
  2.095129580432e-01 
  2.139129571056e-01 
  2.862582256738e-01 
  2.724958224977e-01 
  2.587334193217e-01 
  2.497403332781e-01 
  2.359779301020e-01 
  2.132224408824e-01 
  2.093876910587e-01 
  2.328599208711e-01 
  2.563321506835e-01 
  1.097546511685e-01 
  1.332268809809e-01 
  1.012161127830e-02 
  2.472850542015e-01 
  2.322195574378e-01 
  2.171540606741e-01 
  2.632206083432e-01 
  2.481551115795e-01 
  2.791561624849e-01 
  5.440103461170e-02 
  1.543018883555e-01 
  2.542027420994e-01 
  1.233763078145e-01 
  2.232771615584e-01 
  1.923515810174e-01 
  2.480697752874e-02 
  1.152136167364e-02 
 -1.764254181464e-03 
  4.923254428187e-02 
  3.594692842677e-02 
  7.365811103500e-02 
  2.260144165949e-02 
  9.992255268194e-03 
 -2.616931123098e-03 
  1.085039490548e-02 
 -1.758791485810e-03 
 -9.006518485212e-04 
  7.459743178335e-02 
  3.764713192924e-02 
  6.968320751249e-04 
  1.006871827464e-01 
  6.373688289229e-02 
  1.267769337095e-01 
  1.920038114738e-01 
  1.597050024621e-01 
  1.274061934504e-01 
  9.503703543476e-02 
  6.273822642310e-02 
 -1.929740604238e-03 
  1.973121631702e-01 
  2.396657077265e-01 
  2.820192522828e-01 
  2.086153639014e-01 
  2.509689084577e-01 
  2.199185646326e-01 
  1.948626362118e-01 
  2.083066391518e-01 
  2.217506420918e-01 
  1.620869446760e-01 
  1.755309476160e-01 
  1.293112531403e-01 
  1.154098737818e-03 
  3.780751829833e-02 
  7.446093785884e-02 
 -2.210947800580e-05 
  3.663131008251e-02 
 -1.198317693830e-03 
  1.584027694253e-01 
  1.162639837523e-01 
  7.412519807921e-02 
  1.437561495532e-01 
  1.016173638802e-01 
  1.291095296812e-01 
 -1.136694991714e-03 
  9.454761233808e-04 
  3.027647238476e-03 
  9.585396748768e-02 
  9.793613860277e-02 
  1.928446299671e-01 
  2.874776072445e-01 
  1.473192937282e-01 
  7.160980211897e-03 
  2.771569805579e-01 
  1.369986670416e-01 
  2.668363538712e-01 
  2.263321067755e-01 
  1.638602414948e-01 
  1.013883762142e-01 
  2.596867382668e-01 
  1.972148729861e-01 
  2.930413697581e-01 
  1.252297236883e-01 
  6.377953202878e-02 
  2.329340369276e-03 
  1.183529434468e-01 
  5.690275178729e-02 
  1.114761632053e-01 
  2.826598779726e-01 
  1.421846684780e-01 
  1.709458983445e-03 
  1.446132778043e-01 
  4.138068309750e-03 
  6.566677636055e-03 
  2.752637706802e-01 
  1.370173802036e-01 
 -1.229010273003e-03 
  1.401605874114e-01 
  1.914196934807e-03 
  5.057404142617e-03 
  2.349084164215e-01 
  1.200153608159e-01 
  5.122305210379e-03 
  2.192720065324e-01 
  1.043789509268e-01 
  2.036355966433e-01 
  1.916824296693e-01 
  9.620087205626e-02 
  7.193144432487e-04 
  2.307165437139e-01 
  1.352349861009e-01 
  2.697506577585e-01 
  2.508963515422e-01 
  2.485129187576e-01 
  2.461294859731e-01 
  2.540988091193e-01 
  2.517153763347e-01 
  2.573012666964e-01 
  3.130952273773e-01 
  1.580795470066e-01 
  3.063866635870e-03 
  1.578954490062e-01 
  2.879768635509e-03 
  2.695670635148e-03 
  2.807094062351e-01 
  2.762209562468e-01 
  2.717325062585e-01 
  3.061475516074e-01 
  3.016591016191e-01 
  3.315856969796e-01 
  2.687937438895e-01 
  2.759003938460e-01 
  2.830070438025e-01 
  2.316858328316e-01 
  2.387924827881e-01 
  1.945779217737e-01 
  3.057426867534e-01 
  2.808225199678e-01 
  2.559023531822e-01 
  2.979042889689e-01 
  2.729841221833e-01 
  2.900658911843e-01 
  2.586113868418e-01 
  2.504801299749e-01 
  2.423488731080e-01 
  2.741979646574e-01 
  2.660667077905e-01 
  2.897845424730e-01 
  2.936337930308e-01 
  2.812023172697e-01 
  2.687708415087e-01 
  3.121605021546e-01 
  2.997290263935e-01 
  3.306872112784e-01 
  3.311339520054e-01 
  3.541528269592e-01 
  3.771717019130e-01 
  3.119107249996e-01 
  3.349295999534e-01 
  2.926874979938e-01 
  3.314734999971e-01 
  3.029423738308e-01 
  2.744112476645e-01 
  3.203728594525e-01 
  2.918417332862e-01 
  3.092722189078e-01 
  2.802837865739e-01 
  3.048461687077e-01 
  3.294085508415e-01 
  2.748524866483e-01 
  2.994148687821e-01 
  2.694211867227e-01 
  3.083973768096e-01 
  3.062820586112e-01 
  3.041667404129e-01 
  3.450432574059e-01 
  3.429279392075e-01 
  3.816891380022e-01 
  3.095823496158e-01 
  2.946226645591e-01 
  2.796629795023e-01 
  1.598823860521e-01 
  1.449227009953e-01 
  1.018242248826e-02 
  3.131352868651e-01 
  3.461789142437e-01 
  3.792225416224e-01 
  3.539967893793e-01 
  3.870404167579e-01 
  3.948582918934e-01 
  3.786858610989e-01 
  3.448307842040e-01 
  3.109757073091e-01 
  3.347828791245e-01 
  3.009278022296e-01 
  2.908798971501e-01 
  2.894935846103e-01 
  2.993373261798e-01 
  3.091810677493e-01 
  3.128372992922e-01 
  3.226810408617e-01 
  3.361810139741e-01 
  3.077632241853e-01 
  2.982809275197e-01 
  2.887986308541e-01 
  2.807162372677e-01 
  2.712339406021e-01 
  2.536692503500e-01 
  3.908228214846e-01 
  3.862209058907e-01 
  3.816189902969e-01 
  3.472646877035e-01 
  3.426627721096e-01 
  3.037065539223e-01 
  3.093388244346e-01 
  3.436133483093e-01 
  3.778878721839e-01 
  3.199321885720e-01 
  3.542067124466e-01 
  3.305255527093e-01 
  7.065132728310e-03 
  1.550295928639e-01 
  3.029940529995e-01 
  1.587575776579e-01 
  3.067220377935e-01 
  3.104500225874e-01 