# vtk DataFile Version 2
NuDG++ 2D simulation
ASCII
DATASET UNSTRUCTURED_GRID

POINTS 2244 double
 -1.656250060000e-01  -2.000000030000e-01  0.0
 -1.828125045000e-01  -1.772221997500e-01  0.0
 -2.000000030000e-01  -1.544443965000e-01  0.0
 -1.828125045000e-01  -2.000000030000e-01  0.0
 -2.000000030000e-01  -1.772221997500e-01  0.0
 -2.000000030000e-01  -2.000000030000e-01  0.0
 -6.428571790000e-02  -1.700000018000e-01  0.0
 -8.058035746000e-02  -1.850000024000e-01  0.0
 -9.687499702000e-02  -2.000000030000e-01  0.0
 -6.339285895000e-02  -1.850000024000e-01  0.0
 -7.968749851000e-02  -2.000000030000e-01  0.0
 -6.250000000000e-02  -2.000000030000e-01  0.0
 -2.000000030000e-01  -1.544443965000e-01  0.0
 -1.750000045000e-01  -1.379364989500e-01  0.0
 -1.500000060000e-01  -1.214286014000e-01  0.0
 -2.000000030000e-01  -1.316666491500e-01  0.0
 -1.750000045000e-01  -1.151587516000e-01  0.0
 -2.000000030000e-01  -1.088889018000e-01  0.0
 -1.500000060000e-01  -1.214286014000e-01  0.0
 -1.750000045000e-01  -1.379364989500e-01  0.0
 -2.000000030000e-01  -1.544443965000e-01  0.0
 -1.500000060000e-01  -1.457143016000e-01  0.0
 -1.750000045000e-01  -1.622221991500e-01  0.0
 -1.500000060000e-01  -1.700000018000e-01  0.0
 -1.500000060000e-01  -7.285714149000e-02  0.0
 -1.750000045000e-01  -9.087302164500e-02  0.0
 -2.000000030000e-01  -1.088889018000e-01  0.0
 -1.500000060000e-01  -9.714287144500e-02  0.0
 -1.750000045000e-01  -1.151587516000e-01  0.0
 -1.500000060000e-01  -1.214286014000e-01  0.0
  1.832975030000e+00  -4.625000060000e-02  0.0
  1.853987515000e+00  -1.231250018000e-01  0.0
  1.875000000000e+00  -2.000000030000e-01  0.0
  1.916487515000e+00  -7.187499851000e-02  0.0
  1.937500000000e+00  -1.487499997100e-01  0.0
  2.000000000000e+00  -9.749999642000e-02  0.0
 -1.500000060000e-01  -1.700000018000e-01  0.0
 -1.360000037000e-01  -1.525000036000e-01  0.0
 -1.220000014000e-01  -1.350000054000e-01  0.0
 -1.500000060000e-01  -1.457143016000e-01  0.0
 -1.360000037000e-01  -1.282143034000e-01  0.0
 -1.500000060000e-01  -1.214286014000e-01  0.0
  2.849999964000e-01  -2.333333530000e-02  0.0
  2.837499976000e-01  -8.166666795000e-02  0.0
  2.824999988000e-01  -1.400000006000e-01  0.0
  3.174999952000e-01  -4.666666780000e-02  0.0
  3.162499964000e-01  -1.050000004500e-01  0.0
  3.499999940000e-01  -7.000000030000e-02  0.0
 -1.071429029000e-01  -1.700000018000e-01  0.0
 -8.571431040000e-02  -1.700000018000e-01  0.0
 -6.428571790000e-02  -1.700000018000e-01  0.0
 -9.857145324000e-02  -1.525000036000e-01  0.0
 -7.714286074000e-02  -1.525000036000e-01  0.0
 -9.000000358000e-02  -1.350000054000e-01  0.0
 -1.312499940000e-01  -2.000000030000e-01  0.0
 -1.191964484500e-01  -1.850000024000e-01  0.0
 -1.071429029000e-01  -1.700000018000e-01  0.0
 -1.406250000000e-01  -1.850000024000e-01  0.0
 -1.285714544500e-01  -1.700000018000e-01  0.0
 -1.500000060000e-01  -1.700000018000e-01  0.0
 -1.220000014000e-01  -1.350000054000e-01  0.0
 -1.060000024900e-01  -1.350000054000e-01  0.0
 -9.000000358000e-02  -1.350000054000e-01  0.0
 -1.185000017500e-01  -1.175000034500e-01  0.0
 -1.025000028400e-01  -1.175000034500e-01  0.0
 -1.150000021000e-01  -1.000000015000e-01  0.0
 -9.000000358000e-02  -1.350000054000e-01  0.0
 -1.060000024900e-01  -1.350000054000e-01  0.0
 -1.220000014000e-01  -1.350000054000e-01  0.0
 -9.857145324000e-02  -1.525000036000e-01  0.0
 -1.145714521500e-01  -1.525000036000e-01  0.0
 -1.071429029000e-01  -1.700000018000e-01  0.0
 -7.778175920000e-02  -9.192386270000e-02  0.0
 -9.639088065000e-02  -9.596193210000e-02  0.0
 -1.150000021000e-01  -1.000000015000e-01  0.0
 -8.389088139000e-02  -1.134619340500e-01  0.0
 -1.025000028400e-01  -1.175000034500e-01  0.0
 -9.000000358000e-02  -1.350000054000e-01  0.0
 -1.220000014000e-01  -1.350000054000e-01  0.0
 -1.185000017500e-01  -1.175000034500e-01  0.0
 -1.150000021000e-01  -1.000000015000e-01  0.0
 -1.360000037000e-01  -1.282143034000e-01  0.0
 -1.325000040500e-01  -1.107143014500e-01  0.0
 -1.500000060000e-01  -1.214286014000e-01  0.0
 -7.778175920000e-02  -9.192386270000e-02  0.0
 -8.389088139000e-02  -1.134619340500e-01  0.0
 -9.000000358000e-02  -1.350000054000e-01  0.0
 -6.639088876500e-02  -1.022535823500e-01  0.0
 -7.250001095500e-02  -1.237916537000e-01  0.0
 -5.500001833000e-02  -1.125833020000e-01  0.0
 -1.071429029000e-01  -1.700000018000e-01  0.0
 -1.145714521500e-01  -1.525000036000e-01  0.0
 -1.220000014000e-01  -1.350000054000e-01  0.0
 -1.285714544500e-01  -1.700000018000e-01  0.0
 -1.360000037000e-01  -1.525000036000e-01  0.0
 -1.500000060000e-01  -1.700000018000e-01  0.0
  6.250000093000e-03  -2.000000030000e-01  0.0
  4.062500153650e-02  -2.000000030000e-01  0.0
  7.500000298000e-02  -2.000000030000e-01  0.0
  1.383928512150e-02  -1.850000024000e-01  0.0
  4.821428656500e-02  -1.850000024000e-01  0.0
  2.142857015000e-02  -1.700000018000e-01  0.0
 -1.500000060000e-01  -7.285714149000e-02  0.0
 -1.500000060000e-01  -9.714287144500e-02  0.0
 -1.500000060000e-01  -1.214286014000e-01  0.0
 -1.325000040500e-01  -8.642857149500e-02  0.0
 -1.325000040500e-01  -1.107143014500e-01  0.0
 -1.150000021000e-01  -1.000000015000e-01  0.0
 -2.000000030000e-01  -6.333333254000e-02  0.0
 -1.750000045000e-01  -6.809523701500e-02  0.0
 -1.500000060000e-01  -7.285714149000e-02  0.0
 -1.750000045000e-01  -4.380952660000e-02  0.0
 -1.500000060000e-01  -4.857143107500e-02  0.0
 -1.500000060000e-01  -2.428572066000e-02  0.0
 -2.000000030000e-01  -6.333333254000e-02  0.0
 -2.000000030000e-01  -8.611111717000e-02  0.0
 -2.000000030000e-01  -1.088889018000e-01  0.0
 -1.750000045000e-01  -6.809523701500e-02  0.0
 -1.750000045000e-01  -9.087302164500e-02  0.0
 -1.500000060000e-01  -7.285714149000e-02  0.0
 -2.000000030000e-01  -6.333333254000e-02  0.0
 -1.750000045000e-01  -4.380952660000e-02  0.0
 -1.500000060000e-01  -2.428572066000e-02  0.0
 -2.000000030000e-01  -4.055555630500e-02  0.0
 -1.750000045000e-01  -2.103175036500e-02  0.0
 -2.000000030000e-01  -1.777778007000e-02  0.0
 -1.500000060000e-01  -2.428572066000e-02  0.0
 -1.500000060000e-01  -4.857143107500e-02  0.0
 -1.500000060000e-01  -7.285714149000e-02  0.0
 -1.281259023000e-01  -2.896608505500e-02  0.0
 -1.281259023000e-01  -5.325179547000e-02  0.0
 -1.062517986000e-01  -3.364644945000e-02  0.0
 -1.099999994000e-01   1.996667010000e-08  0.0
 -1.300000027000e-01  -1.214285034666e-02  0.0
 -1.500000060000e-01  -2.428572066000e-02  0.0
 -1.081258990000e-01  -1.682321474166e-02  0.0
 -1.281259023000e-01  -2.896608505500e-02  0.0
 -1.062517986000e-01  -3.364644945000e-02  0.0
 -1.500000060000e-01  -2.428572066000e-02  0.0
 -1.500000060000e-01   0.000000000000e+00  0.0
 -1.500000060000e-01   2.428572066000e-02  0.0
 -1.750000045000e-01  -2.103175036500e-02  0.0
 -1.750000045000e-01   3.253970295000e-03  0.0
 -2.000000030000e-01  -1.777778007000e-02  0.0
 -1.500000060000e-01  -7.285714149000e-02  0.0
 -1.226314045700e-01  -6.892856210000e-02  0.0
 -9.526280314000e-02  -6.499998271000e-02  0.0
 -1.281259023000e-01  -5.325179547000e-02  0.0
 -1.007573008700e-01  -4.932321608000e-02  0.0
 -1.062517986000e-01  -3.364644945000e-02  0.0
  3.499999940000e-01   1.400000006000e-01  0.0
  4.021931737500e-01   1.224999986500e-01  0.0
  4.543863535000e-01   1.049999967000e-01  0.0
  4.187500029500e-01   1.749999970000e-01  0.0
  4.709431827000e-01   1.574999950500e-01  0.0
  4.875000119000e-01   2.099999934000e-01  0.0
 -7.101409137000e-02  -4.349999130000e-02  0.0
 -8.313844725500e-02  -5.424998700500e-02  0.0
 -9.526280314000e-02  -6.499998271000e-02  0.0
 -6.449843011500e-02  -5.250913650000e-02  0.0
 -7.662278600000e-02  -6.325913220500e-02  0.0
 -5.798276886000e-02  -6.151828170000e-02  0.0
 -9.526280314000e-02  -6.499998271000e-02  0.0
 -1.226314045700e-01  -6.892856210000e-02  0.0
 -1.500000060000e-01  -7.285714149000e-02  0.0
 -1.051314026200e-01  -8.249999210500e-02  0.0
 -1.325000040500e-01  -8.642857149500e-02  0.0
 -1.150000021000e-01  -1.000000015000e-01  0.0
 -6.181925908000e-02  -1.656441018000e-02  0.0
 -7.051259093000e-02  -1.954082492500e-02  0.0
 -7.920592278000e-02  -2.251723967000e-02  0.0
 -5.862244405000e-02  -2.428220026000e-02  0.0
 -6.731577590000e-02  -2.725861500500e-02  0.0
 -5.542562902000e-02  -3.199999034000e-02  0.0
 -7.920592278000e-02  -2.251723967000e-02  0.0
 -9.272886069000e-02  -2.808184456000e-02  0.0
 -1.062517986000e-01  -3.364644945000e-02  0.0
 -7.511000707500e-02  -3.300861548500e-02  0.0
 -8.863294498500e-02  -3.857322037500e-02  0.0
 -7.101409137000e-02  -4.349999130000e-02  0.0
 -7.101409137000e-02  -4.349999130000e-02  0.0
 -6.321986019500e-02  -3.774999082000e-02  0.0
 -5.542562902000e-02  -3.199999034000e-02  0.0
 -7.511000707500e-02  -3.300861548500e-02  0.0
 -6.731577590000e-02  -2.725861500500e-02  0.0
 -7.920592278000e-02  -2.251723967000e-02  0.0
 -7.920592278000e-02  -2.251723967000e-02  0.0
 -9.460296109000e-02  -1.125860985166e-02  0.0
 -1.099999994000e-01   1.996667010000e-08  0.0
 -9.272886069000e-02  -2.808184456000e-02  0.0
 -1.081258990000e-01  -1.682321474166e-02  0.0
 -1.062517986000e-01  -3.364644945000e-02  0.0
 -7.778175920000e-02  -9.192386270000e-02  0.0
 -6.788226403000e-02  -7.672107220000e-02  0.0
 -5.798276886000e-02  -6.151828170000e-02  0.0
 -8.652228117000e-02  -7.846192270500e-02  0.0
 -7.662278600000e-02  -6.325913220500e-02  0.0
 -9.526280314000e-02  -6.499998271000e-02  0.0
 -7.101409137000e-02  -4.349999130000e-02  0.0
 -8.863294498500e-02  -3.857322037500e-02  0.0
 -1.062517986000e-01  -3.364644945000e-02  0.0
 -8.313844725500e-02  -5.424998700500e-02  0.0
 -1.007573008700e-01  -4.932321608000e-02  0.0
 -9.526280314000e-02  -6.499998271000e-02  0.0
 -7.778175920000e-02  -9.192386270000e-02  0.0
 -8.652228117000e-02  -7.846192270500e-02  0.0
 -9.526280314000e-02  -6.499998271000e-02  0.0
 -9.639088065000e-02  -9.596193210000e-02  0.0
 -1.051314026200e-01  -8.249999210500e-02  0.0
 -1.150000021000e-01  -1.000000015000e-01  0.0
[...]
POINT_DATA 2244
SCALARS field1 double 1
LOOKUP_TABLE default
  1.975161055723e-03 
  8.922506828317e-03 
  1.586985260091e-02 
  1.105020492967e-03 
  8.052366265561e-03 
  2.348799302099e-04 
  3.683398827618e-02 
  1.920544522727e-02 
  1.576902178369e-03 
  1.886389307021e-02 
  1.235350021309e-03 
  8.937978642496e-04 
  1.542748226983e-02 
  1.970978942592e-02 
  2.399209658201e-02 
  2.130222487434e-02 
  2.558453203043e-02 
  2.717696747884e-02 
  2.388965091660e-02 
  1.932252317618e-02 
  1.475539543576e-02 
  2.167917805390e-02 
  1.711205031349e-02 
  1.946870519121e-02 
  3.159444670020e-02 
  2.948059892132e-02 
  2.736675114244e-02 
  2.815012821570e-02 
  2.603628043683e-02 
  2.470580973121e-02 
  3.314908609212e-02 
  2.925221811326e-02 
  2.535535013440e-02 
  3.323746623059e-02 
  2.934059825173e-02 
  3.332584636906e-02 
  2.059687133273e-02 
  2.426511936702e-02 
  2.793336740130e-02 
  2.256968646376e-02 
  2.623793449805e-02 
  2.454250159479e-02 
  2.881562663761e-02 
  3.033203449155e-02 
  3.184844234548e-02 
  2.924197694997e-02 
  3.075838480391e-02 
  2.966832726234e-02 
  2.942740346570e-02 
  3.169013889605e-02 
  3.395287432640e-02 
  2.860285179542e-02 
  3.086558722577e-02 
  2.777830012514e-02 
  3.089892405088e-03 
  1.728739517674e-02 
  3.148489794840e-02 
  1.218950579136e-02 
  2.638700856302e-02 
  2.128911917763e-02 
  2.649005235674e-02 
  2.698507557818e-02 
  2.748009879962e-02 
  2.729968584595e-02 
  2.779470906738e-02 
  2.810931933515e-02 
  2.727409149516e-02 
  2.686603339957e-02 
  2.645797530397e-02 
  2.840978618765e-02 
  2.800172809205e-02 
  2.954548088014e-02 
  3.150269722107e-02 
  2.967606963222e-02 
  2.784944204338e-02 
  2.979666353115e-02 
  2.797003594230e-02 
  2.809062984123e-02 
  2.695359612724e-02 
  2.766561699988e-02 
  2.837763787251e-02 
  2.629382117440e-02 
  2.700584204703e-02 
  2.563404622155e-02 
  3.155270966922e-02 
  3.020220565710e-02 
  2.885170164497e-02 
  3.227790915146e-02 
  3.092740513934e-02 
  3.300310863370e-02 
  3.005190601287e-02 
  2.844321320012e-02 
  2.683452038737e-02 
  2.578365865678e-02 
  2.417496584403e-02 
  2.151541130070e-02 
  1.112573997845e-03 
  1.683775877895e-03 
  2.254977757945e-03 
  2.180539937340e-02 
  2.237660125345e-02 
  4.249822474896e-02 
  3.086221767502e-02 
  2.823359512702e-02 
  2.560497257902e-02 
  2.968850572503e-02 
  2.705988317703e-02 
  2.851479377504e-02 
  3.601016628210e-02 
  3.382498197021e-02 
  3.163979765832e-02 
  3.520296098009e-02 
  3.301777666820e-02 
  3.439575567807e-02 
  3.544939770795e-02 
  3.151378597114e-02 
  2.757817423433e-02 
  3.374501062219e-02 
  2.980939888538e-02 
  3.204062353643e-02 
  3.562015143085e-02 
  3.527398058474e-02 
  3.492780973862e-02 
  3.741091178873e-02 
  3.706474094261e-02 
  3.920167214660e-02 
  3.340330478609e-02 
  3.224355964573e-02 
  3.108381450536e-02 
  2.961255394767e-02 
  2.845280880730e-02 
  2.582180310924e-02 
  2.398455897368e-02 
  2.853816367783e-02 
  3.309176838198e-02 
  2.499018139499e-02 
  2.954378609914e-02 
  2.599580381631e-02 
  3.414031230073e-02 
  3.416691460014e-02 
  3.419351689956e-02 
  3.706564228537e-02 
  3.709224458478e-02 
  3.999097227000e-02 
  3.067079147906e-02 
  2.942334562586e-02 
  2.817589977266e-02 
  2.831778523207e-02 
  2.707033937887e-02 
  2.596477898507e-02 
  3.565959461642e-02 
  3.462313782125e-02 
  3.358668102609e-02 
  2.838710926459e-02 
  2.735065246943e-02 
  2.111462391277e-02 
  2.433392114588e-02 
  2.662906765647e-02 
  2.892421416705e-02 
  2.773577193801e-02 
  3.003091844859e-02 
  3.113762273014e-02 
  2.841275606219e-02 
  2.941128100812e-02 
  3.040980595404e-02 
  2.846950475058e-02 
  2.946802969651e-02 
  2.852625343897e-02 
  9.703595600837e-03 
  1.488168617177e-02 
  2.005977674271e-02 
  1.312138030810e-02 
  1.829947087903e-02 
  1.653916501536e-02 
  1.978141952807e-02 
  2.265023994480e-02 
  2.551906036152e-02 
  2.196954717134e-02 
  2.483836758807e-02 
  2.415767481461e-02 
  2.414702126205e-02 
  2.051459125213e-02 
  1.688216124221e-02 
  2.197451861001e-02 
  1.834208860008e-02 
  1.980201595796e-02 
  1.960020836856e-02 
  2.172480890007e-02 
  2.384940943158e-02 
  2.263302171445e-02 
  2.475762224596e-02 
  2.566583506035e-02 
  3.127965115570e-02 
  3.119483876354e-02 
  3.111002637138e-02 
  3.013357778904e-02 
  3.004876539688e-02 
  2.898750442238e-02 
  2.429001890465e-02 
  2.487620165435e-02 
  2.546238440405e-02 
  2.645484837953e-02 
  2.704103112923e-02 
  2.861967785440e-02 
  3.140725111324e-02 
  3.016049015197e-02 
  2.891372919070e-02 
  2.986598891619e-02 
  2.861922795492e-02 
  2.832472671914e-02 
  1.986068539711e-02 
  1.477822026052e-02 
  9.695755123935e-03 
  1.854278239816e-02 
  1.346031726157e-02 
  1.722487939920e-02 
  3.251854910333e-02 
  3.070845645099e-02 
  2.889836379866e-02 
  3.306151922955e-02 
  3.125142657722e-02 
  3.360448935577e-02 
  3.132301966132e-02 
  3.149388682367e-02 
  3.166475398602e-02 
  3.041015677597e-02 
  3.058102393832e-02 
  2.949729389062e-02 
  3.380466106203e-02 
  3.546004919054e-02 
  3.711543731904e-02 
  3.420911786518e-02 
  3.586450599368e-02 
  3.461357466833e-02 
  3.277778272724e-02 
  3.229463655079e-02 
  3.181149037434e-02 
  3.335314681602e-02 
  3.287000063957e-02 
  3.392851090481e-02 
  3.102006669813e-02 
  3.407833503610e-02 
  3.713660337407e-02 
  3.108972590741e-02 
  3.414799424538e-02 
  3.115938511669e-02 
  3.718292471252e-02 
  3.410756488790e-02 
  3.103220506329e-02 
  3.479513075428e-02 
  3.171977092966e-02 
  3.240733679604e-02 
  4.184512371011e-02 
  3.995651015177e-02 
  3.806789659344e-02 
  3.683254882906e-02 
  3.494393527073e-02 
  3.181997394802e-02 
  4.095159894783e-02 
  3.589239005101e-02 
  3.083318115420e-02 
  3.946143233378e-02 
  3.440222343696e-02 
  3.797126571972e-02 
  3.151695392827e-02 
  3.231837091604e-02 
  3.311978790380e-02 
  3.657228680295e-02 
  3.737370379071e-02 
  4.162761967763e-02 
  3.292649020944e-02 
  3.371248547297e-02 
  3.449848073649e-02 
  3.516672967528e-02 
  3.595272493881e-02 
  3.740696914112e-02 
  4.334996771995e-02 
  4.265251789280e-02 
  4.195506806565e-02 
  3.846654091971e-02 
  3.776909109256e-02 
  3.358311411947e-02 
  5.144765973320e-04 
  2.779321234596e-02 
  5.507194809459e-02 
  9.133095006637e-04 
  2.819204524929e-02 
  1.312142403995e-03 
  4.264426289113e-02 
  4.785319636680e-02 
  5.306212984248e-02 
  4.585445229591e-02 
  5.106338577158e-02 
  4.906464170069e-02 
  5.307114090898e-02 
  4.781299079245e-02 
  4.255484067591e-02 
  4.813184029847e-02 
  4.287369018194e-02 
  4.319253968796e-02 
  4.894311825718e-02 
  5.139786362335e-02 
  5.385260898952e-02 
  2.539229257943e-02 
  2.784703794560e-02 
  1.841466901683e-03 
  4.234698040687e-02 
  4.588200203620e-02 
  4.941702366553e-02 
  4.039930477173e-02 
  4.393432640106e-02 
  3.845162913659e-02 
  4.216211819351e-02 
  4.758469134700e-02 
  5.300726450049e-02 
  4.258294315257e-02 
  4.800551630607e-02 
  4.300376811164e-02 
  4.289746287362e-02 
  3.841109411153e-02 
  3.392472534944e-02 
  3.869105827028e-02 
  3.420468950819e-02 
  3.448465366695e-02 
  3.706798132579e-02 
  3.723660135256e-02 
  3.740522137933e-02 
  3.551480980369e-02 
  3.568342983046e-02 
  3.396163828159e-02 
  4.099882629093e-02 
  3.978294827356e-02 
  3.856707025618e-02 
  4.518349861110e-02 
  4.396762059372e-02 
  4.936817093126e-02 
 -2.383387560665e-04 
  8.530469513637e-03 
  1.729927778334e-02 
  3.990701212429e-04 
  9.167878390947e-03 
  1.036478998552e-03 
  1.721204085609e-02 
  2.053248909079e-02 
  2.385293732549e-02 
  2.378523342883e-02 
  2.710568166353e-02 
  3.035842600156e-02 
  3.835938763610e-02 
  2.191741645054e-02 
  5.475445264972e-03 
  1.935441587269e-02 
  2.912444687123e-03 
  3.494441092735e-04 
 -5.865705426199e-04 
  1.497037109059e-03 
  3.580644760738e-03 
  4.411908685355e-03 
  6.495516337033e-03 
  9.410387913329e-03 
  1.485851509621e-04 
 -3.043499656312e-04 
 -7.572850822245e-04 
  8.103589192654e-03 
  7.650654076061e-03 
  1.605859323435e-02 
  3.325792077676e-02 
  1.844894585430e-02 
  3.639970931851e-03 
  2.786911233687e-02 
  1.306013741441e-02 
  2.248030389698e-02 
  1.719339951531e-02 
  2.414733960326e-02 
  3.110127969121e-02 
  9.299634846618e-03 
  1.625357493457e-02 
  1.405870177926e-03 
 -9.311029088557e-04 
  4.266397239678e-03 
  9.463897388211e-03 
  7.556510493598e-03 
  1.275401064213e-02 
  1.604412389605e-02 
  8.152346676197e-04 
  9.047911201935e-04 
  9.943475727673e-04 
  2.543207552488e-02 
  2.552163197745e-02 
  5.004891638214e-02 
  1.019657818640e-03 
  2.804525502511e-02 
  5.507085223158e-02 
  9.078629076042e-04 
  2.793346011407e-02 
  7.960679965684e-04 
  4.070506672813e-02 
  2.390611969171e-02 
  7.107172655293e-03 
  3.742048913624e-02 
  2.062154209982e-02 
  3.413591154435e-02 
  2.746585319844e-04 
  1.637935235877e-02 
  3.248404618556e-02 
  8.933157692280e-04 
  1.699800959601e-02 
  1.511973006472e-03 
  1.967107893812e-03 
  2.151519587840e-02 
  4.106328386299e-02 
  2.566318317235e-02 
  4.521127115694e-02 
  4.935925845088e-02 
  3.787352590098e-02 
  2.113210537937e-02 
  4.390684857754e-03 
  3.812892261053e-02 
  2.138750208892e-02 
  3.838431932009e-02 
  3.295819894964e-02 
  1.728182785641e-02 
  1.605456763186e-03 
  1.724191109847e-02 
  1.565540005241e-03 
  1.525623247296e-03 
  2.492053915066e-03 
  1.715846784632e-02 
  3.182488177758e-02 
  2.161900392843e-02 
  3.628541785968e-02 
  4.074595394179e-02 
  3.106425662475e-02 
  3.104710238459e-02 
  3.102994814443e-02 
  3.591787914431e-02 
  3.590072490416e-02 
  4.077150166388e-02 
  3.620716249402e-02 
  2.036886210990e-02 
  4.530561725773e-03 
  3.691111282217e-02 
  2.107281243805e-02 
  3.761506315032e-02 
  4.283145287622e-02 
  3.858273917961e-02 
  3.433402548299e-02 
  3.836866694054e-02 
  3.411995324393e-02 
  3.390588100487e-02 
  3.040782753435e-02 
  2.710579298437e-02 
  2.380375843439e-02 
  3.080320592257e-02 
  2.750117137259e-02 
  3.119858431080e-02 
  7.503154080958e-04 
  1.689123693927e-03 
  2.627931979757e-03 
  1.941777678775e-02 
  2.035658507358e-02 
  3.808523816740e-02 
  3.183968195180e-03 
  1.453608199162e-03 
 -2.767517968560e-04 
  1.446534201242e-03 
 -2.838257947756e-04 
 -2.908997926952e-04 
  3.249392262924e-02 
  3.283387746105e-02 
  3.317383229286e-02 
  2.904302267453e-02 
  2.938297750634e-02 
  2.559212271981e-02 
  3.469066384981e-02 
  3.685837744662e-02 
  3.902609104342e-02 
  3.708488946759e-02 
  3.925260306440e-02 
  3.947911508538e-02 
  3.896822315209e-02 
  3.667344903825e-02 
  3.437867492441e-02 
  3.731407779452e-02 
  3.501930368068e-02 
  3.565993243695e-02 
  3.365259471974e-02 
  3.650570519410e-02 
  3.935881566846e-02 
  3.377225921242e-02 
  3.662536968678e-02 
  3.389192370509e-02 
  3.582991931999e-02 
  3.511456454576e-02 
  3.439920977154e-02 
  3.181603602152e-02 
  3.110068124730e-02 
  2.780215272305e-02 
  1.401432129804e-02 
  1.173671254870e-02 
  9.459103799362e-03 
  2.904147992729e-02 
  2.676387117795e-02 
  4.406863855653e-02 
  3.292236877078e-02 
  2.851259662638e-02 
  2.410282448198e-02 
  2.939327733148e-02 
  2.498350518708e-02 
  2.586418589217e-02 
  3.297769465693e-02 
  3.300567671812e-02 
  3.303365877930e-02 
  2.831360597842e-02 
  2.834158803961e-02 
  2.364951729992e-02 
  1.930980888621e-02 
  2.245570436165e-02 
  2.560159983709e-02 
  2.166934311750e-02 
  2.481523859294e-02 
  2.402887734879e-02 
  2.611434900600e-02 
  2.262755205205e-02 
  1.914075509810e-02 
  2.203561725157e-02 
  1.854882029761e-02 
  1.795688549713e-02 
  2.530538103543e-02 
  2.548552415212e-02 
  2.566566726881e-02 
  2.647767532447e-02 
  2.665781844116e-02 
  2.764996961351e-02 
  2.561435514237e-02 
  2.547518243426e-02 
  2.533600972615e-02 
  2.251958230783e-02 
  2.238040959972e-02 
  1.942480947329e-02 
  3.157060832325e-02 
  2.968182031831e-02 
  2.779303231338e-02 
  3.201736958171e-02 
  3.012858157678e-02 
  3.246413084018e-02 
  2.581104723410e-02 
  2.666937324150e-02 
  2.752769924889e-02 
  2.890945442638e-02 
  2.976778043377e-02 
  3.200786161865e-02 
  1.925391963048e-02 
  1.819716865206e-02 
  1.714041767364e-02 
  1.444452946707e-02 
  1.338777848865e-02 
  9.635139303667e-03 
  1.924694401588e-02 
  2.164531705351e-02 
  2.404369009114e-02 
  1.830453481820e-02 
  2.070290785584e-02 
  1.736212562053e-02 
  2.389415203788e-02 
  2.174358526748e-02 
  1.959301849708e-02 
  2.066522138454e-02 
  1.851465461414e-02 
  1.743629073120e-02 
  3.166561654962e-02 
  2.971428708710e-02 
  2.776295762458e-02 
  3.074980049791e-02 
  2.879847103539e-02 
  2.983398444620e-02 
  2.719741038115e-02 
  2.615607365273e-02 
  2.511473692431e-02 
  2.123400246098e-02 
  2.019266573256e-02 
  1.527059454082e-02 
  2.756006419540e-02 
  3.049806108590e-02 
  3.343605797640e-02 
  2.654920220385e-02 
  2.948719909435e-02 
  2.553834021230e-02 
  1.460854285835e-02 
  1.815971581188e-02 
  2.171088876542e-02 
  7.824043014177e-03 
  1.137521596771e-02 
  1.039543170005e-03 
  2.127442232796e-02 
  1.784551682171e-02 
  1.441661131546e-02 
  2.333496337655e-02 
  1.990605787030e-02 
  2.539550442514e-02 
  3.646104094715e-02 
  1.985960560195e-02 
  3.258170256743e-03 
  1.879108210030e-02 
  2.189646755092e-03 
  1.121123253441e-03 
  9.884013397051e-03 
  6.939849868525e-03 
  3.995686340000e-03 
  2.625896717160e-02 
  2.331480364307e-02 
  4.263392094615e-02 
  2.656246530445e-02 
  2.768907259696e-02 
  2.881567988947e-02 
  2.432543440530e-02 
  2.545204169781e-02 
  2.208840350616e-02 
  3.874008649106e-02 
  2.041611348218e-02 
  2.092140473297e-03 
  2.341830065275e-02 
  5.094327643866e-03 
  8.096514814434e-03 
  2.931221682744e-02 
  3.050490596329e-02 
  3.169759509915e-02 
  2.899037054388e-02 
  3.018305967973e-02 
  2.866852426032e-02 
  3.165256176215e-02 
  3.070493954818e-02 
  2.975731733422e-02 
  2.990579180675e-02 
  2.895816959279e-02 
  2.815902185135e-02 
  2.647221223632e-02 
  2.740817773983e-02 
  2.834414324334e-02 
  2.906807118904e-02 
  3.000403669255e-02 
  3.166393014175e-02 
  2.806876630086e-02 
  2.763759102202e-02 
  2.720641574317e-02 
  2.883455478230e-02 
  2.840337950346e-02 
  2.960034326374e-02 
  3.270426515011e-02 
  3.071109611697e-02 
  2.871792708384e-02 
  3.358145191265e-02 
  3.158828287951e-02 
  3.445863867519e-02 
  2.718839562901e-02 
  2.926411954088e-02 
  3.133984345274e-02 
  2.494050957635e-02 
  2.701623348822e-02 
  2.269262352369e-02 
  3.167649018009e-02 
  3.266973609939e-02 
  3.366298201868e-02 
  3.052892987199e-02 
  3.152217579128e-02 
  2.938136956388e-02 
  2.985128433165e-02 
  2.896390792478e-02 
  2.807653151791e-02 
  2.865328096766e-02 
  2.776590456079e-02 
  2.745527760366e-02 
  3.217861585967e-02 
  3.106775961766e-02 
  2.995690337565e-02 
  2.961711009854e-02 
  2.850625385653e-02 
  2.705560433741e-02 
  3.441280053413e-02 
  3.448477227479e-02 
  3.455674401545e-02 
  2.050352797002e-02 
  2.057549971067e-02 
  6.594255405898e-03 
  2.759454849581e-02 
  2.682288302132e-02 
  2.605121754684e-02 
  3.010398658832e-02 
  2.933232111383e-02 
  3.261342468083e-02 
  2.525216401718e-02 
  3.013378416488e-02 
  3.501540431258e-02 
  2.897658911737e-02 
  3.385820926507e-02 
  3.270101421756e-02 
  3.509311334788e-03 
  1.632435688669e-03 
 -2.444399574506e-04 
  6.592306230850e-03 
  4.715430584731e-03 
  9.675301126913e-03 
  3.184400248674e-03 
  1.416216204726e-03 
 -3.519678392215e-04 
  1.531411452997e-03 
 -2.367725909504e-04 
 -1.215773426793e-04 
  9.780745712264e-03 
  5.055975671993e-03 
  3.312056317217e-04 
  1.363232873579e-02 
  8.907558695521e-03 
  1.748391175932e-02 
  2.770247641311e-02 
  2.273950236935e-02 
  1.777652832558e-02 
  1.382365071325e-02 
  8.860676669482e-03 
 -5.517498661730e-05 
  2.844378290992e-02 
  3.072076659699e-02 
  3.299775028406e-02 
  2.734082929931e-02 
  2.961781298638e-02 
  2.623787568870e-02 
  2.811929993411e-02 
  2.729858148393e-02 
  2.647786303374e-02 
  2.304554304007e-02 
  2.222482458989e-02 
  1.797178614603e-02 
  2.891373846660e-04 
  5.049767060943e-03 
  9.810396737220e-03 
  4.862014428167e-05 
  4.809249820558e-03 
 -1.918970961027e-04 
  1.930110774835e-02 
  1.453709371769e-02 
  9.773079687028e-03 
  1.849934638145e-02 
  1.373533235079e-02 
  1.769758501455e-02 
 -1.219770537024e-04 
  1.831141249054e-04 
  4.882053035132e-04 
  1.387133876756e-02 
  1.417642994617e-02 
  2.786465458882e-02 
  4.056927920661e-02 
  2.261891136381e-02 
  4.668543521012e-03 
  3.776254975455e-02 
  1.981218191175e-02 
  3.495582030248e-02 
  3.328595356049e-02 
  3.086185467881e-02 
  2.843775579714e-02 
  3.237247056678e-02 
  2.994837168511e-02 
  3.145898757308e-02 
  1.535597196717e-02 
  8.833179042612e-03 
  2.310386118053e-03 
  1.736043908703e-02 
  1.083764616247e-02 
  1.936490620688e-02 
  4.334407132074e-02 
  2.188709673292e-02 
  4.301221451062e-04 
  2.244894881598e-02 
  9.919742281657e-04 
  1.553826311225e-03 
  4.210563685186e-02 
  2.101204665210e-02 
 -8.154354765133e-05 
  2.145398432066e-02 
  3.603941209035e-04 
  8.023317894583e-04 
  3.597252901475e-02 
  1.967799799755e-02 
  3.383466980357e-03 
  3.328803369439e-02 
  1.699350267720e-02 
  3.060353837404e-02 
  2.782937112131e-02 
  1.411189661636e-02 
  3.944221114015e-04 
  3.451280916800e-02 
  2.079533466305e-02 
  4.119624721470e-02 
  2.578274861723e-02 
  2.972287257974e-02 
  3.366299654226e-02 
  2.875851277430e-02 
  3.269863673682e-02 
  3.173427693138e-02 
  5.187228369324e-02 
  2.630660165646e-02 
  7.409196196768e-04 
  2.679583855098e-02 
  1.230156514196e-03 
  1.719393408715e-03 
  3.280019900527e-02 
  3.695744616049e-02 
  4.111469331571e-02 
  3.509558258165e-02 
  3.925282973687e-02 
  3.739096615803e-02 
  4.081932693950e-02 
  3.695275988558e-02 
  3.308619283165e-02 
  3.456671638371e-02 
  3.070014932978e-02 
  2.831410582791e-02 
  3.300632457646e-02 
  3.308355526469e-02 
  3.316078595292e-02 
  3.293406605186e-02 
  3.301129674009e-02 
  3.286180752726e-02 
  3.346973313607e-02 
  3.160797808229e-02 
  2.974622302851e-02 
  3.329748538514e-02 
  3.143573033136e-02 
  3.312523763420e-02 
  3.354818037355e-02 
  3.245034166068e-02 
  3.135250294782e-02 
  3.535419986207e-02 
  3.425636114921e-02 
  3.716021935060e-02 
  3.763025794709e-02 
  3.993937995087e-02 
  4.224850195465e-02 
  3.550524394586e-02 
  3.781436594964e-02 
  3.338022994463e-02 
  3.722787944377e-02 
  3.939193521719e-02 
  4.155599099061e-02 
  4.346262534602e-02 
  4.562668111944e-02 
  4.969737124827e-02 
  3.273511091967e-02 
  3.494725247724e-02 
  3.715939403480e-02 
  3.206426522848e-02 
  3.427640678604e-02 
  3.139341953729e-02 
  5.025980159185e-02 
  5.122407882501e-02 
  5.218835605817e-02 
  4.651791093148e-02 
  4.748218816464e-02 
  4.277602027112e-02 
  5.014361457527e-02 
  4.628927685816e-02 
  4.243493914105e-02 
  2.628036052075e-02 
  2.242602280364e-02 
  2.417106466230e-03 
  3.438212990910e-02 
  3.823896912848e-02 
  4.209580834787e-02 
  3.876910985027e-02 
  4.262594906965e-02 
  4.315608979144e-02 
  4.209309647605e-02 
  3.798497602361e-02 
  3.387685557116e-02 
  3.758961910322e-02 
  3.348149865078e-02 
  3.308614173040e-02 
  3.774893886356e-02 
  3.601467547300e-02 
  3.428041208245e-02 
  3.614858479809e-02 
  3.441432140754e-02 
  3.454823073263e-02 
  3.309439097604e-02 
  3.584321616645e-02 
  3.859204135685e-02 
  3.322375539487e-02 
  3.597258058528e-02 
  3.335311981371e-02 
  4.281298414494e-02 
  4.270048877518e-02 
  4.258799340541e-02 
  4.747223644659e-02 
  4.735974107683e-02 
  5.213148874825e-02 
  4.979415655853e-02 
  4.620998191264e-02 
  4.262580726675e-02 
  4.348542253392e-02 
  3.990124788804e-02 
  3.717668850932e-02 
  3.100908738986e-03 
  2.765970540632e-02 
  5.221850207365e-02 
  2.702833841549e-02 
  5.158713508282e-02 
  5.095576809200e-02 