# vtk DataFile Version 2
NuDG++ 2D simulation
ASCII
DATASET UNSTRUCTURED_GRID

POINTS 2244 double
 -1.656250060000e-01  -2.000000030000e-01  0.0
 -1.828125045000e-01  -1.772221997500e-01  0.0
 -2.000000030000e-01  -1.544443965000e-01  0.0
 -1.828125045000e-01  -2.000000030000e-01  0.0
 -2.000000030000e-01  -1.772221997500e-01  0.0
 -2.000000030000e-01  -2.000000030000e-01  0.0
 -6.428571790000e-02  -1.700000018000e-01  0.0
 -8.058035746000e-02  -1.850000024000e-01  0.0
 -9.687499702000e-02  -2.000000030000e-01  0.0
 -6.339285895000e-02  -1.850000024000e-01  0.0
 -7.968749851000e-02  -2.000000030000e-01  0.0
 -6.250000000000e-02  -2.000000030000e-01  0.0
 -2.000000030000e-01  -1.544443965000e-01  0.0
 -1.750000045000e-01  -1.379364989500e-01  0.0
 -1.500000060000e-01  -1.214286014000e-01  0.0
 -2.000000030000e-01  -1.316666491500e-01  0.0
 -1.750000045000e-01  -1.151587516000e-01  0.0
 -2.000000030000e-01  -1.088889018000e-01  0.0
 -1.500000060000e-01  -1.214286014000e-01  0.0
 -1.750000045000e-01  -1.379364989500e-01  0.0
 -2.000000030000e-01  -1.544443965000e-01  0.0
 -1.500000060000e-01  -1.457143016000e-01  0.0
 -1.750000045000e-01  -1.622221991500e-01  0.0
 -1.500000060000e-01  -1.700000018000e-01  0.0
 -1.500000060000e-01  -7.285714149000e-02  0.0
 -1.750000045000e-01  -9.087302164500e-02  0.0
 -2.000000030000e-01  -1.088889018000e-01  0.0
 -1.500000060000e-01  -9.714287144500e-02  0.0
 -1.750000045000e-01  -1.151587516000e-01  0.0
 -1.500000060000e-01  -1.214286014000e-01  0.0
  1.832975030000e+00  -4.625000060000e-02  0.0
  1.853987515000e+00  -1.231250018000e-01  0.0
  1.875000000000e+00  -2.000000030000e-01  0.0
  1.916487515000e+00  -7.187499851000e-02  0.0
  1.937500000000e+00  -1.487499997100e-01  0.0
  2.000000000000e+00  -9.749999642000e-02  0.0
 -1.500000060000e-01  -1.700000018000e-01  0.0
 -1.360000037000e-01  -1.525000036000e-01  0.0
 -1.220000014000e-01  -1.350000054000e-01  0.0
 -1.500000060000e-01  -1.457143016000e-01  0.0
 -1.360000037000e-01  -1.282143034000e-01  0.0
 -1.500000060000e-01  -1.214286014000e-01  0.0
  2.849999964000e-01  -2.333333530000e-02  0.0
  2.837499976000e-01  -8.166666795000e-02  0.0
  2.824999988000e-01  -1.400000006000e-01  0.0
  3.174999952000e-01  -4.666666780000e-02  0.0
  3.162499964000e-01  -1.050000004500e-01  0.0
  3.499999940000e-01  -7.000000030000e-02  0.0
 -1.071429029000e-01  -1.700000018000e-01  0.0
 -8.571431040000e-02  -1.700000018000e-01  0.0
 -6.428571790000e-02  -1.700000018000e-01  0.0
 -9.857145324000e-02  -1.525000036000e-01  0.0
 -7.714286074000e-02  -1.525000036000e-01  0.0
 -9.000000358000e-02  -1.350000054000e-01  0.0
 -1.312499940000e-01  -2.000000030000e-01  0.0
 -1.191964484500e-01  -1.850000024000e-01  0.0
 -1.071429029000e-01  -1.700000018000e-01  0.0
 -1.406250000000e-01  -1.850000024000e-01  0.0
 -1.285714544500e-01  -1.700000018000e-01  0.0
 -1.500000060000e-01  -1.700000018000e-01  0.0
 -1.220000014000e-01  -1.350000054000e-01  0.0
 -1.060000024900e-01  -1.350000054000e-01  0.0
 -9.000000358000e-02  -1.350000054000e-01  0.0
 -1.185000017500e-01  -1.175000034500e-01  0.0
 -1.025000028400e-01  -1.175000034500e-01  0.0
 -1.150000021000e-01  -1.000000015000e-01  0.0
 -9.000000358000e-02  -1.350000054000e-01  0.0
 -1.060000024900e-01  -1.350000054000e-01  0.0
 -1.220000014000e-01  -1.350000054000e-01  0.0
 -9.857145324000e-02  -1.525000036000e-01  0.0
 -1.145714521500e-01  -1.525000036000e-01  0.0
 -1.071429029000e-01  -1.700000018000e-01  0.0
 -7.778175920000e-02  -9.192386270000e-02  0.0
 -9.639088065000e-02  -9.596193210000e-02  0.0
 -1.150000021000e-01  -1.000000015000e-01  0.0
 -8.389088139000e-02  -1.134619340500e-01  0.0
 -1.025000028400e-01  -1.175000034500e-01  0.0
 -9.000000358000e-02  -1.350000054000e-01  0.0
 -1.220000014000e-01  -1.350000054000e-01  0.0
 -1.185000017500e-01  -1.175000034500e-01  0.0
 -1.150000021000e-01  -1.000000015000e-01  0.0
 -1.360000037000e-01  -1.282143034000e-01  0.0
 -1.325000040500e-01  -1.107143014500e-01  0.0
 -1.500000060000e-01  -1.214286014000e-01  0.0
 -7.778175920000e-02  -9.192386270000e-02  0.0
 -8.389088139000e-02  -1.134619340500e-01  0.0
 -9.000000358000e-02  -1.350000054000e-01  0.0
 -6.639088876500e-02  -1.022535823500e-01  0.0
 -7.250001095500e-02  -1.237916537000e-01  0.0
 -5.500001833000e-02  -1.125833020000e-01  0.0
 -1.071429029000e-01  -1.700000018000e-01  0.0
 -1.145714521500e-01  -1.525000036000e-01  0.0
 -1.220000014000e-01  -1.350000054000e-01  0.0
 -1.285714544500e-01  -1.700000018000e-01  0.0
 -1.360000037000e-01  -1.525000036000e-01  0.0
 -1.500000060000e-01  -1.700000018000e-01  0.0
  6.250000093000e-03  -2.000000030000e-01  0.0
  4.062500153650e-02  -2.000000030000e-01  0.0
  7.500000298000e-02  -2.000000030000e-01  0.0
  1.383928512150e-02  -1.850000024000e-01  0.0
  4.821428656500e-02  -1.850000024000e-01  0.0
  2.142857015000e-02  -1.700000018000e-01  0.0
 -1.500000060000e-01  -7.285714149000e-02  0.0
 -1.500000060000e-01  -9.714287144500e-02  0.0
 -1.500000060000e-01  -1.214286014000e-01  0.0
 -1.325000040500e-01  -8.642857149500e-02  0.0
 -1.325000040500e-01  -1.107143014500e-01  0.0
 -1.150000021000e-01  -1.000000015000e-01  0.0
 -2.000000030000e-01  -6.333333254000e-02  0.0
 -1.750000045000e-01  -6.809523701500e-02  0.0
 -1.500000060000e-01  -7.285714149000e-02  0.0
 -1.750000045000e-01  -4.380952660000e-02  0.0
 -1.500000060000e-01  -4.857143107500e-02  0.0
 -1.500000060000e-01  -2.428572066000e-02  0.0
 -2.000000030000e-01  -6.333333254000e-02  0.0
 -2.000000030000e-01  -8.611111717000e-02  0.0
 -2.000000030000e-01  -1.088889018000e-01  0.0
 -1.750000045000e-01  -6.809523701500e-02  0.0
 -1.750000045000e-01  -9.087302164500e-02  0.0
 -1.500000060000e-01  -7.285714149000e-02  0.0
 -2.000000030000e-01  -6.333333254000e-02  0.0
 -1.750000045000e-01  -4.380952660000e-02  0.0
 -1.500000060000e-01  -2.428572066000e-02  0.0
 -2.000000030000e-01  -4.055555630500e-02  0.0
 -1.750000045000e-01  -2.103175036500e-02  0.0
 -2.000000030000e-01  -1.777778007000e-02  0.0
 -1.500000060000e-01  -2.428572066000e-02  0.0
 -1.500000060000e-01  -4.857143107500e-02  0.0
 -1.500000060000e-01  -7.285714149000e-02  0.0
 -1.281259023000e-01  -2.896608505500e-02  0.0
 -1.281259023000e-01  -5.325179547000e-02  0.0
 -1.062517986000e-01  -3.364644945000e-02  0.0
 -1.099999994000e-01   1.996667010000e-08  0.0
 -1.300000027000e-01  -1.214285034666e-02  0.0
 -1.500000060000e-01  -2.428572066000e-02  0.0
 -1.081258990000e-01  -1.682321474166e-02  0.0
 -1.281259023000e-01  -2.896608505500e-02  0.0
 -1.062517986000e-01  -3.364644945000e-02  0.0
 -1.500000060000e-01  -2.428572066000e-02  0.0
 -1.500000060000e-01   0.000000000000e+00  0.0
 -1.500000060000e-01   2.428572066000e-02  0.0
 -1.750000045000e-01  -2.103175036500e-02  0.0
 -1.750000045000e-01   3.253970295000e-03  0.0
 -2.000000030000e-01  -1.777778007000e-02  0.0
 -1.500000060000e-01  -7.285714149000e-02  0.0
 -1.226314045700e-01  -6.892856210000e-02  0.0
 -9.526280314000e-02  -6.499998271000e-02  0.0
 -1.281259023000e-01  -5.325179547000e-02  0.0
 -1.007573008700e-01  -4.932321608000e-02  0.0
 -1.062517986000e-01  -3.364644945000e-02  0.0
  3.499999940000e-01   1.400000006000e-01  0.0
  4.021931737500e-01   1.224999986500e-01  0.0
  4.543863535000e-01   1.049999967000e-01  0.0
  4.187500029500e-01   1.749999970000e-01  0.0
  4.709431827000e-01   1.574999950500e-01  0.0
  4.875000119000e-01   2.099999934000e-01  0.0
 -7.101409137000e-02  -4.349999130000e-02  0.0
 -8.313844725500e-02  -5.424998700500e-02  0.0
 -9.526280314000e-02  -6.499998271000e-02  0.0
 -6.449843011500e-02  -5.250913650000e-02  0.0
 -7.662278600000e-02  -6.325913220500e-02  0.0
 -5.798276886000e-02  -6.151828170000e-02  0.0
 -9.526280314000e-02  -6.499998271000e-02  0.0
 -1.226314045700e-01  -6.892856210000e-02  0.0
 -1.500000060000e-01  -7.285714149000e-02  0.0
 -1.051314026200e-01  -8.249999210500e-02  0.0
 -1.325000040500e-01  -8.642857149500e-02  0.0
 -1.150000021000e-01  -1.000000015000e-01  0.0
 -6.181925908000e-02  -1.656441018000e-02  0.0
 -7.051259093000e-02  -1.954082492500e-02  0.0
 -7.920592278000e-02  -2.251723967000e-02  0.0
 -5.862244405000e-02  -2.428220026000e-02  0.0
 -6.731577590000e-02  -2.725861500500e-02  0.0
 -5.542562902000e-02  -3.199999034000e-02  0.0
 -7.920592278000e-02  -2.251723967000e-02  0.0
 -9.272886069000e-02  -2.808184456000e-02  0.0
 -1.062517986000e-01  -3.364644945000e-02  0.0
 -7.511000707500e-02  -3.300861548500e-02  0.0
 -8.863294498500e-02  -3.857322037500e-02  0.0
 -7.101409137000e-02  -4.349999130000e-02  0.0
 -7.101409137000e-02  -4.349999130000e-02  0.0
 -6.321986019500e-02  -3.774999082000e-02  0.0
 -5.542562902000e-02  -3.199999034000e-02  0.0
 -7.511000707500e-02  -3.300861548500e-02  0.0
 -6.731577590000e-02  -2.725861500500e-02  0.0
 -7.920592278000e-02  -2.251723967000e-02  0.0
 -7.920592278000e-02  -2.251723967000e-02  0.0
 -9.460296109000e-02  -1.125860985166e-02  0.0
 -1.099999994000e-01   1.996667010000e-08  0.0
 -9.272886069000e-02  -2.808184456000e-02  0.0
 -1.081258990000e-01  -1.682321474166e-02  0.0
 -1.062517986000e-01  -3.364644945000e-02  0.0
 -7.778175920000e-02  -9.192386270000e-02  0.0
 -6.788226403000e-02  -7.672107220000e-02  0.0
 -5.798276886000e-02  -6.151828170000e-02  0.0
 -8.652228117000e-02  -7.846192270500e-02  0.0
 -7.662278600000e-02  -6.325913220500e-02  0.0
 -9.526280314000e-02  -6.499998271000e-02  0.0
 -7.101409137000e-02  -4.349999130000e-02  0.0
 -8.863294498500e-02  -3.857322037500e-02  0.0
 -1.062517986000e-01  -3.364644945000e-02  0.0
 -8.313844725500e-02  -5.424998700500e-02  0.0
 -1.007573008700e-01  -4.932321608000e-02  0.0
 -9.526280314000e-02  -6.499998271000e-02  0.0
 -7.778175920000e-02  -9.192386270000e-02  0.0
 -8.652228117000e-02  -7.846192270500e-02  0.0
 -9.526280314000e-02  -6.499998271000e-02  0.0
 -9.639088065000e-02  -9.596193210000e-02  0.0
 -1.051314026200e-01  -8.249999210500e-02  0.0
 -1.150000021000e-01  -1.000000015000e-01  0.0
[...]
POINT_DATA 2244
SCALARS field1 double 1
LOOKUP_TABLE default
  2.894288033816e-03 
  1.115925735609e-01 
  2.202908590880e-01 
  1.325837893912e-03 
  1.100241234210e-01 
 -2.426122459912e-04 
  3.241433361291e-01 
  1.611158769778e-01 
 -1.911582173404e-03 
  1.630335558439e-01 
  6.096692631854e-06 
  1.923775558668e-03 
  2.178552656799e-01 
  2.817045090770e-01 
  3.455537524741e-01 
  3.002868600992e-01 
  3.641361034963e-01 
  3.827184545186e-01 
  3.465955118122e-01 
  2.821318002078e-01 
  2.176680886035e-01 
  2.607982774648e-01 
  1.963345658605e-01 
  1.750010431175e-01 
  4.761404634875e-01 
  4.296539394306e-01 
  3.831674153736e-01 
  4.131201088889e-01 
  3.666335848319e-01 
  3.500997542903e-01 
  2.626766097548e-01 
  1.014633718680e-01 
 -5.974986601891e-02 
  3.064627277309e-01 
  1.452494898440e-01 
  3.502488457069e-01 
  1.756118680017e-01 
  2.514994079123e-01 
  3.273869478229e-01 
  2.616204789879e-01 
  3.375080188985e-01 
  3.476290899741e-01 
  4.613526401730e-01 
  4.412097863049e-01 
  4.210669324368e-01 
  4.635762191696e-01 
  4.434333653015e-01 
  4.657997981663e-01 
  2.385803036832e-01 
  2.815092344251e-01 
  3.244381651669e-01 
  3.042761645636e-01 
  3.472050953054e-01 
  3.699720254439e-01 
  1.590304710765e-04 
  1.196766649905e-01 
  2.391942995098e-01 
  8.509581794779e-02 
  2.046134524672e-01 
  1.700326054245e-01 
  3.237147742891e-01 
  3.458598465480e-01 
  3.680049188069e-01 
  3.830586814848e-01 
  4.052037537437e-01 
  4.424025886805e-01 
  3.669542905637e-01 
  3.455038825345e-01 
  3.240534745053e-01 
  3.026702903494e-01 
  2.812198823202e-01 
  2.383862901352e-01 
  4.885935030964e-01 
  4.654089241553e-01 
  4.422243452143e-01 
  4.299745912063e-01 
  4.067900122653e-01 
  3.713556793163e-01 
  3.257036351479e-01 
  3.837331071804e-01 
  4.417625792130e-01 
  3.371230007301e-01 
  3.951524727627e-01 
  3.485423663124e-01 
  4.889745129590e-01 
  4.295741887209e-01 
  3.701738644829e-01 
  4.935066937772e-01 
  4.341063695392e-01 
  4.980388745955e-01 
  2.373635618037e-01 
  2.823012000774e-01 
  3.272388383512e-01 
  2.056217943576e-01 
  2.505594326313e-01 
  1.738800269115e-01 
  1.412711502943e-03 
  3.667876798069e-03 
  5.923042093195e-03 
  2.332619299270e-01 
  2.355170952222e-01 
  4.651111483511e-01 
  4.757211393382e-01 
  4.124011444943e-01 
  3.490811496503e-01 
  4.584268828654e-01 
  3.951068880215e-01 
  4.411326263927e-01 
  4.938451162478e-01 
  4.831081182132e-01 
  4.723711201785e-01 
  5.069210412359e-01 
  4.961840432012e-01 
  5.199969662240e-01 
  4.925080381643e-01 
  4.380191760039e-01 
  3.835303138434e-01 
  4.829549268779e-01 
  4.284660647175e-01 
  4.734018155915e-01 
  4.953850671341e-01 
  5.078749436316e-01 
  5.203648201290e-01 
  5.224560003357e-01 
  5.349458768331e-01 
  5.495269335373e-01 
  5.203459724754e-01 
  4.984149341972e-01 
  4.764838959191e-01 
  4.869152914248e-01 
  4.649842531467e-01 
  4.534846103742e-01 
  4.278271466104e-01 
  4.743453311874e-01 
  5.208635157644e-01 
  4.377513310459e-01 
  4.842695156229e-01 
  4.476755154814e-01 
  5.153205989761e-01 
  5.220671876619e-01 
  5.288137763477e-01 
  5.327580115266e-01 
  5.395046002124e-01 
  5.501954240771e-01 
  4.754645525022e-01 
  4.632635380046e-01 
  4.510625235070e-01 
  4.636612612555e-01 
  4.514602467579e-01 
  4.518579700088e-01 
  4.114591541752e-01 
  4.608257581504e-01 
  5.101923621257e-01 
  2.393998179906e-01 
  2.887664219658e-01 
  6.734048180599e-02 
  4.194058059946e-01 
  4.387012363325e-01 
  4.579966666703e-01 
  4.683354665969e-01 
  4.876308969348e-01 
  5.172651271993e-01 
  4.530365027796e-01 
  4.643905156480e-01 
  4.757445285164e-01 
  4.486775826008e-01 
  4.600315954692e-01 
  4.443186624220e-01 
  1.634074755625e-01 
  2.460804430154e-01 
  3.287534104683e-01 
  2.155733555490e-01 
  2.982463230019e-01 
  2.677392355354e-01 
  3.158552117159e-01 
  3.806503059054e-01 
  4.454454000948e-01 
  3.676948141284e-01 
  4.324899083178e-01 
  4.195344165409e-01 
  4.211310824574e-01 
  3.478335285324e-01 
  2.745359746073e-01 
  3.724793277043e-01 
  2.991817737793e-01 
  3.238275729513e-01 
  3.148508960179e-01 
  3.688195169668e-01 
  4.227881379158e-01 
  3.811146120625e-01 
  4.350832330114e-01 
  4.473783281071e-01 
  4.891768545819e-01 
  5.054166552606e-01 
  5.216564559393e-01 
  4.726341965184e-01 
  4.888739971971e-01 
  4.560915384549e-01 
  4.223089019840e-01 
  4.353982079037e-01 
  4.484875138234e-01 
  4.412154142396e-01 
  4.543047201592e-01 
  4.601219264951e-01 
  4.842555022110e-01 
  4.684024533083e-01 
  4.525494044057e-01 
  4.631984058670e-01 
  4.473453569644e-01 
  4.421413095230e-01 
  3.244050295750e-01 
  2.468114304348e-01 
  1.692178312947e-01 
  3.097891841517e-01 
  2.321955850115e-01 
  2.951733387283e-01 
  4.971648054480e-01 
  4.337423571309e-01 
  3.703199088139e-01 
  4.113087588638e-01 
  3.478863105468e-01 
  3.254527122797e-01 
  2.963999906649e-01 
  3.198786512624e-01 
  3.433573118599e-01 
  3.787942321606e-01 
  4.022728927581e-01 
  4.611884736562e-01 
  5.156918689995e-01 
  4.626548126467e-01 
  4.096177562939e-01 
  5.390042407009e-01 
  4.859671843481e-01 
  5.623166124024e-01 
  5.120126699923e-01 
  5.035685739382e-01 
  4.951244778841e-01 
  4.189413909645e-01 
  4.104972949104e-01 
  3.258701119367e-01 
  4.868121766546e-01 
  5.497962801259e-01 
  6.127803835972e-01 
  5.034904844531e-01 
  5.664745879244e-01 
  5.201687922515e-01 
  6.160164767659e-01 
  5.518639876841e-01 
  4.877114986023e-01 
  5.605843012484e-01 
  4.964318121666e-01 
  5.051521257309e-01 
  7.006959738717e-01 
  6.593608778783e-01 
  6.180257818848e-01 
  6.006089338809e-01 
  5.592738378874e-01 
  5.005218938901e-01 
  5.948537198338e-01 
  5.571596825962e-01 
  5.194656453587e-01 
  6.083963885761e-01 
  5.707023513386e-01 
  6.219390573185e-01 
  4.969382246323e-01 
  5.082726940489e-01 
  5.196071634655e-01 
  6.006192703763e-01 
  6.119537397929e-01 
  7.043003161202e-01 
  5.146722365605e-01 
  4.210853712099e-01 
  3.274985058593e-01 
  4.621271961916e-01 
  3.685403308410e-01 
  4.095821558228e-01 
  7.526959345224e-01 
  7.297962996657e-01 
  7.068966648090e-01 
  6.377652200290e-01 
  6.148655851724e-01 
  5.228345055357e-01 
  6.482755888676e-05 
  2.886616773898e-01 
  5.772585272207e-01 
 -4.734029068843e-03 
  2.838628207621e-01 
 -9.532885696572e-03 
  7.201264308200e-01 
  6.634944238680e-01 
  6.068624169159e-01 
  6.832281448922e-01 
  6.265961379401e-01 
  6.463298589643e-01 
  6.019443182477e-01 
  6.610786415487e-01 
  7.202129648497e-01 
  6.694132557918e-01 
  7.285475790928e-01 
  7.368821933358e-01 
  6.440821708948e-01 
  6.222639896430e-01 
  6.004458083911e-01 
  3.283988010152e-01 
  3.065806197634e-01 
  1.271543113566e-02 
  7.058164107722e-01 
  6.774309159069e-01 
  6.490454210417e-01 
  6.643452091434e-01 
  6.359597142781e-01 
  6.228740075145e-01 
  6.965285782305e-01 
  6.391658394046e-01 
  5.818031005787e-01 
  7.200922629724e-01 
  6.627295241465e-01 
  7.436559477143e-01 
  7.538754628592e-01 
  6.385358464595e-01 
  5.231962300597e-01 
  6.580805006220e-01 
  5.427408842223e-01 
  5.622855383848e-01 
  4.104736146244e-01 
  4.318000302007e-01 
  4.531264457769e-01 
  4.868250620672e-01 
  5.081514776434e-01 
  5.631765095100e-01 
  5.922241115115e-01 
  6.105100886075e-01 
  6.287960657035e-01 
  6.188775298999e-01 
  6.371635069958e-01 
  6.455309482882e-01 
 -1.555136810752e-03 
  1.389327595356e-01 
  2.794206558819e-01 
  6.512676122729e-03 
  1.470005724691e-01 
  1.458048905621e-02 
  2.747437484050e-01 
  3.451216475376e-01 
  4.154995466703e-01 
  3.593551079984e-01 
  4.297330071310e-01 
  4.439664675918e-01 
  4.038048272503e-01 
  2.045083258814e-01 
  5.211824512529e-03 
  2.025651683196e-01 
  3.268666950676e-03 
  1.325509388824e-03 
 -1.176891595751e-02 
  2.428811205711e-02 
  6.034514007173e-02 
  7.446878191069e-02 
  1.105258099253e-01 
  1.607064797789e-01 
  5.505819187555e-03 
 -3.264767232000e-03 
 -1.203535365156e-02 
  1.341614255630e-01 
  1.253908391434e-01 
  2.628170319384e-01 
  2.761570642946e-01 
  1.388967833780e-01 
  1.636502461461e-03 
  2.462278802166e-01 
  1.089675993001e-01 
  2.162986961387e-01 
  2.766002232380e-01 
  3.662216525310e-01 
  4.558430818240e-01 
  1.482958926397e-01 
  2.379173219327e-01 
  1.999156204132e-02 
 -1.673745939237e-02 
  7.017940473988e-02 
  1.570962688721e-01 
  1.222429416705e-01 
  2.091598058027e-01 
  2.612233427333e-01 
  5.550819474431e-03 
  6.377645630953e-03 
  7.204471787475e-03 
  3.261179871109e-01 
  3.269448132674e-01 
  6.466851547473e-01 
  1.174007306266e-02 
  3.062344659102e-01 
  6.007288587578e-01 
  6.253891524700e-03 
  3.007482843722e-01 
  7.677099867453e-04 
  4.378826403964e-01 
  2.200807125724e-01 
  2.278784748390e-03 
  3.985224930898e-01 
  1.807205652658e-01 
  3.591623457831e-01 
  4.884438052239e-03 
  2.418609257152e-01 
  4.788374133781e-01 
  1.305727306485e-02 
  2.500337607278e-01 
  2.123010807745e-02 
  1.710467193950e-02 
  3.045283393823e-01 
  5.919520068251e-01 
  3.281256598923e-01 
  6.155493273350e-01 
  6.391466478450e-01 
  4.115312839302e-01 
  2.101292740180e-01 
  8.727264105898e-03 
  4.317437916326e-01 
  2.303417817205e-01 
  4.519562993351e-01 
  2.438883145071e-01 
  1.225193559943e-01 
  1.150397481619e-03 
  1.239178863095e-01 
  2.548927796739e-03 
  3.947458111858e-03 
  3.148217059183e-02 
  2.514630738588e-01 
  4.714439771258e-01 
  3.107896960857e-01 
  5.307705993526e-01 
  5.900972215795e-01 
  4.541447147218e-01 
  4.872477251991e-01 
  5.203507356765e-01 
  5.231928256274e-01 
  5.562958361048e-01 
  5.922409365331e-01 
  3.323994535483e-01 
  1.705335520523e-01 
  8.667650556334e-03 
  3.680194046668e-01 
  2.061535031708e-01 
  4.036393557853e-01 
  7.518837982410e-01 
  6.554503747754e-01 
  5.590169513099e-01 
  6.793809465305e-01 
  5.829475230649e-01 
  6.068780948200e-01 
  4.469156723747e-01 
  4.306368799025e-01 
  4.143580874302e-01 
  4.846301528552e-01 
  4.683513603830e-01 
  5.223446333357e-01 
  1.696533546572e-03 
  4.772178385731e-03 
  7.847823224890e-03 
  1.689266720471e-01 
  1.720023168863e-01 
  3.361568105477e-01 
  5.291494381600e-02 
  2.378115623549e-02 
 -5.352631345015e-03 
  2.419347027617e-02 
 -4.940317304340e-03 
 -4.528003263666e-03 
  5.001803137455e-01 
  5.139159495600e-01 
  5.276515853745e-01 
  4.827787265051e-01 
  4.965143623195e-01 
  4.653771392646e-01 
  5.297045609385e-01 
  5.388008581943e-01 
  5.478971554501e-01 
  5.403825009947e-01 
  5.494787982505e-01 
  5.510604410510e-01 
  5.466864805627e-01 
  5.207425181745e-01 
  4.947985557863e-01 
  5.197695002662e-01 
  4.938255378779e-01 
  4.928525199696e-01 
  4.954290919170e-01 
  5.205529086143e-01 
  5.456767253115e-01 
  5.109115669969e-01 
  5.360353836941e-01 
  5.263940420767e-01 
  4.919085149927e-01 
  4.942237096275e-01 
  4.965389042622e-01 
  4.381794728530e-01 
  4.404946674878e-01 
  3.844504307133e-01 
 -3.121299254763e-02 
 -6.179184094935e-02 
 -9.237068935106e-02 
  1.208821750209e-01 
  9.030332661915e-02 
  2.729773425894e-01 
  5.301990150536e-01 
  4.798764297854e-01 
  4.295538445172e-01 
  4.946919366915e-01 
  4.443693514233e-01 
  4.591848583293e-01 
  5.299799243831e-01 
  5.241965853867e-01 
  5.184132463902e-01 
  4.816001223765e-01 
  4.758167833801e-01 
  4.332203203700e-01 
  3.207947564798e-01 
  3.901089181669e-01 
  4.594230798541e-01 
  3.732337849493e-01 
  4.425479466365e-01 
  4.256728134189e-01 
  4.364480977139e-01 
  3.808963772207e-01 
  3.253446567274e-01 
  3.612256974797e-01 
  3.056739769865e-01 
  2.860032972455e-01 
  4.581043227845e-01 
  4.425175004128e-01 
  4.269306780410e-01 
  4.627643257442e-01 
  4.471775033725e-01 
  4.674243287039e-01 
  4.266866317712e-01 
  4.408525042920e-01 
  4.550183768128e-01 
  3.742868222169e-01 
  3.884526947377e-01 
  3.218870126627e-01 
  4.937105010324e-01 
  4.791364416904e-01 
  4.645623823483e-01 
  5.154203286202e-01 
  5.008462692782e-01 
  5.371301562080e-01 
  4.626736382664e-01 
  4.636445146107e-01 
  4.646153909551e-01 
  4.817811108026e-01 
  4.827519871469e-01 
  5.008885833388e-01 
  3.263966414849e-01 
  3.094136903857e-01 
  2.924307392865e-01 
  2.494960756849e-01 
  2.325131245858e-01 
  1.725955098850e-01 
  3.213339744431e-01 
  3.721101513125e-01 
  4.228863281819e-01 
  3.057701708317e-01 
  3.565463477010e-01 
  2.902063672202e-01 
  4.207025356554e-01 
  3.686903291945e-01 
  3.166781227336e-01 
  3.565815640691e-01 
  3.045693576082e-01 
  2.924605924827e-01 
  4.996204674580e-01 
  4.842467060972e-01 
  4.688729447365e-01 
  4.796701072662e-01 
  4.642963459054e-01 
  4.597197470743e-01 
  3.836264133012e-01 
  3.782606520703e-01 
  3.728948908393e-01 
  3.009271137050e-01 
  2.955613524741e-01 
  2.182278141089e-01 
  3.846251671780e-01 
  4.415371169085e-01 
  4.984490666390e-01 
  3.803291243609e-01 
  4.372410740914e-01 
  3.760330815438e-01 
  2.165340817473e-01 
  2.167234951619e-01 
  2.169129085764e-01 
  1.081974318568e-01 
  1.083868452713e-01 
 -1.392180337597e-04 
  2.188586871130e-01 
  2.179972057032e-01 
  2.171357242933e-01 
  2.962414909029e-01 
  2.953800094931e-01 
  3.736242946928e-01 
  2.859175457675e-01 
  1.455936054221e-01 
  5.269665076614e-03 
  1.427838107678e-01 
  2.459870422308e-03 
 -3.499242319969e-04 
  3.268399862309e-02 
  1.701849395441e-02 
  1.352989285737e-03 
  2.351406520078e-01 
  2.194751473391e-01 
  4.375973053924e-01 
  3.741012300895e-01 
  3.633293199875e-01 
  3.525574098854e-01 
  2.968004265959e-01 
  2.860285164939e-01 
  2.194996231023e-01 
  4.057557989126e-01 
  2.024860622001e-01 
 -7.836745123799e-04 
  2.190644841446e-01 
  1.579474743208e-02 
  3.237316937655e-02 
  4.572887349121e-01 
  4.732450174468e-01 
  4.892012999814e-01 
  4.310732647469e-01 
  4.470295472816e-01 
  4.048577945817e-01 
  4.879515844948e-01 
  4.733992415633e-01 
  4.588468986318e-01 
  4.781849295097e-01 
  4.636325865782e-01 
  4.684182745246e-01 
  3.484113876811e-01 
  3.777322882473e-01 
  4.070531888135e-01 
  3.137260524526e-01 
  3.430469530188e-01 
  2.790407172241e-01 
  4.040656050796e-01 
  3.771968133492e-01 
  3.503280216189e-01 
  4.301536160673e-01 
  4.032848243369e-01 
  4.562416270549e-01 
  2.816267092876e-01 
  3.458626239719e-01 
  4.100985386562e-01 
  3.283021384593e-01 
  3.925380531436e-01 
  3.749775676310e-01 
  3.518043559887e-01 
  3.136066249128e-01 
  2.754088938369e-01 
  2.849881509296e-01 
  2.467904198537e-01 
  2.181719458705e-01 
  4.878220933914e-01 
  4.893253828160e-01 
  4.908286722406e-01 
  4.465786952037e-01 
  4.480819846283e-01 
  4.053352970160e-01 
  4.559070474534e-01 
  4.041620934516e-01 
  3.524171394498e-01 
  4.149010465367e-01 
  3.631560925349e-01 
  3.738950456200e-01 
  4.980544420384e-01 
  4.765003134856e-01 
  4.549461849328e-01 
  4.359881983837e-01 
  4.144340698310e-01 
  3.739219547291e-01 
  2.862564753999e-01 
  3.262796195773e-01 
  3.663027637548e-01 
  1.457273389237e-01 
  1.857504831011e-01 
  5.198202447521e-03 
  4.614375464957e-01 
  4.452299445769e-01 
  4.290223426582e-01 
  4.985671947997e-01 
  4.823595928810e-01 
  5.356968431038e-01 
  4.913626682781e-02 
  1.362024960458e-01 
  2.232687252637e-01 
  7.667555320945e-02 
  1.637417824274e-01 
  1.042148395911e-01 
  5.653292641434e-02 
  2.525576022377e-02 
 -6.021405966808e-03 
  1.126262195267e-01 
  8.134905333615e-02 
  1.687195126391e-01 
  5.155005861783e-02 
  2.314790995505e-02 
 -5.254238707732e-03 
  2.414871462597e-02 
 -4.253434036810e-03 
 -3.252629365889e-03 
  1.723312891315e-01 
  8.646118968713e-02 
  5.910902427542e-04 
  2.230152601858e-01 
  1.371451607415e-01 
  2.736992312402e-01 
  4.205607186414e-01 
  3.460065789164e-01 
  2.714524391913e-01 
  2.078852825072e-01 
  1.333311427821e-01 
 -4.790153626990e-03 
  4.344080492547e-01 
  4.901910661348e-01 
  5.459740830150e-01 
  4.362327200451e-01 
  4.920157369252e-01 
  4.380573908354e-01 
  4.266318263789e-01 
  4.346848507704e-01 
  4.427378751618e-01 
  3.525020344779e-01 
  3.605550588693e-01 
  2.783722425768e-01 
  2.575542143342e-03 
  8.681045131056e-02 
  1.710453604778e-01 
 -3.754793008789e-04 
  8.385942986634e-02 
 -3.326500745100e-03 
  3.288922807351e-01 
  2.502173138207e-01 
  1.715423469063e-01 
  3.046572053708e-01 
  2.259822384564e-01 
  2.804221300066e-01 
 -1.555270267524e-03 
  4.419800161241e-03 
  1.039487059001e-02 
  2.113160928593e-01 
  2.172911632881e-01 
  4.241874559861e-01 
  4.609458310637e-01 
  2.358013219962e-01 
  1.065681292869e-02 
  4.598632286259e-01 
  2.347187195584e-01 
  4.587806261881e-01 
  2.752825864145e-01 
  1.995644704580e-01 
  1.238463545015e-01 
  3.991853811514e-01 
  3.234672651949e-01 
  5.230881758882e-01 
  2.202712674108e-01 
  1.117409409937e-01 
  3.210614576504e-03 
  1.964542519277e-01 
  8.792392551054e-02 
  1.726372364446e-01 
  6.100909763393e-01 
  3.074338599193e-01 
  4.776743499349e-03 
  3.130229199679e-01 
  1.036580354791e-02 
  1.595486359646e-02 
  5.913089877606e-01 
  2.953701857703e-01 
 -5.686162200945e-04 
  3.034401423186e-01 
  7.501340328240e-03 
  1.557129687657e-02 
  4.085482949483e-01 
  2.086548909814e-01 
  8.761487014590e-03 
  3.770190892481e-01 
  1.771256852813e-01 
  3.454898835480e-01 
  4.178938390396e-01 
  2.109483700496e-01 
  4.002901059633e-03 
  4.963017953981e-01 
  2.893563264082e-01 
  5.747097517567e-01 
  4.715292901603e-01 
  4.452118451571e-01 
  4.188944001540e-01 
  4.357895748766e-01 
  4.094721298735e-01 
  4.000498595930e-01 
  6.517370823915e-01 
  3.292164086659e-01 
  6.695734940307e-03 
  3.263866877267e-01 
  3.866014001162e-03 
  1.036293062017e-03 
  5.418241419793e-01 
  5.609124107559e-01 
  5.800006795324e-01 
  5.920574642941e-01 
  6.111457330706e-01 
  6.422907866088e-01 
  5.719063874708e-01 
  5.601381635411e-01 
  5.483699396115e-01 
  4.992153522476e-01 
  4.874471283179e-01 
  4.265243170243e-01 
  5.116810905674e-01 
  4.417997406637e-01 
  3.719183907600e-01 
  5.019791613841e-01 
  4.320978114804e-01 
  4.922772322007e-01 
  3.759307192261e-01 
  3.923762701870e-01 
  4.088218211478e-01 
  4.334733130517e-01 
  4.499188640126e-01 
  4.910159068773e-01 
  4.997844134731e-01 
  4.941419571424e-01 
  4.884995008117e-01 
  5.706184415312e-01 
  5.649759852005e-01 
  6.414524695893e-01 
  6.419487903705e-01 
  6.797175648267e-01 
  7.174863392829e-01 
  5.698514895993e-01 
  6.076202640555e-01 
  4.977541888281e-01 
  6.425131668038e-01 
  6.154462139110e-01 
  5.883792610182e-01 
  6.465055227426e-01 
  6.194385698498e-01 
  6.504978786815e-01 
  5.372732841670e-01 
  5.870862206432e-01 
  6.368991571195e-01 
  5.132426006038e-01 
  5.630555370800e-01 
  4.892119170405e-01 
  6.459735521411e-01 
  6.297103696581e-01 
  6.134471871751e-01 
  6.864046695450e-01 
  6.701414870620e-01 
  7.268357869489e-01 
  6.494574653982e-01 
  6.269313561433e-01 
  6.044052468884e-01 
  3.369353907865e-01 
  3.144092815315e-01 
  2.441331617474e-02 
  5.280094507291e-01 
  6.250038791962e-01 
  7.219983076633e-01 
  6.405687084027e-01 
  7.375631368698e-01 
  7.531279660764e-01 
  7.216791811122e-01 
  6.225377787684e-01 
  5.233963764246e-01 
  6.078547995967e-01 
  5.087133972529e-01 
  4.940304180813e-01 
  4.340566418112e-01 
  4.746047482771e-01 
  5.151528547431e-01 
  5.009162656291e-01 
  5.414643720951e-01 
  5.677758894471e-01 
  5.139355340321e-01 
  4.736292005083e-01 
  4.333228669845e-01 
  4.407361380945e-01 
  4.004298045707e-01 
  3.675367421568e-01 
  7.372208344770e-01 
  7.325533793175e-01 
  7.278859241580e-01 
  6.729648205297e-01 
  6.682973653702e-01 
  6.087088065823e-01 
  6.485911123387e-01 
  6.825267320871e-01 
  7.164623518354e-01 
  6.449535915049e-01 
  6.788892112533e-01 
  6.413160706711e-01 
  1.088133784065e-02 
  3.119083161099e-01 
  6.129352943792e-01 
  3.289050800841e-01 
  6.299320583533e-01 
  6.469288223275e-01 