# vtk DataFile Version 2
NuDG++ 2D simulation
ASCII
DATASET UNSTRUCTURED_GRID

POINTS 2244 double
 -1.656250060000e-01  -2.000000030000e-01  0.0
 -1.828125045000e-01  -1.772221997500e-01  0.0
 -2.000000030000e-01  -1.544443965000e-01  0.0
 -1.828125045000e-01  -2.000000030000e-01  0.0
 -2.000000030000e-01  -1.772221997500e-01  0.0
 -2.000000030000e-01  -2.000000030000e-01  0.0
 -6.428571790000e-02  -1.700000018000e-01  0.0
 -8.058035746000e-02  -1.850000024000e-01  0.0
 -9.687499702000e-02  -2.000000030000e-01  0.0
 -6.339285895000e-02  -1.850000024000e-01  0.0
 -7.968749851000e-02  -2.000000030000e-01  0.0
 -6.250000000000e-02  -2.000000030000e-01  0.0
 -2.000000030000e-01  -1.544443965000e-01  0.0
 -1.750000045000e-01  -1.379364989500e-01  0.0
 -1.500000060000e-01  -1.214286014000e-01  0.0
 -2.000000030000e-01  -1.316666491500e-01  0.0
 -1.750000045000e-01  -1.151587516000e-01  0.0
 -2.000000030000e-01  -1.088889018000e-01  0.0
 -1.500000060000e-01  -1.214286014000e-01  0.0
 -1.750000045000e-01  -1.379364989500e-01  0.0
 -2.000000030000e-01  -1.544443965000e-01  0.0
 -1.500000060000e-01  -1.457143016000e-01  0.0
 -1.750000045000e-01  -1.622221991500e-01  0.0
 -1.500000060000e-01  -1.700000018000e-01  0.0
 -1.500000060000e-01  -7.285714149000e-02  0.0
 -1.750000045000e-01  -9.087302164500e-02  0.0
 -2.000000030000e-01  -1.088889018000e-01  0.0
 -1.500000060000e-01  -9.714287144500e-02  0.0
 -1.750000045000e-01  -1.151587516000e-01  0.0
 -1.500000060000e-01  -1.214286014000e-01  0.0
  1.832975030000e+00  -4.625000060000e-02  0.0
  1.853987515000e+00  -1.231250018000e-01  0.0
  1.875000000000e+00  -2.000000030000e-01  0.0
  1.916487515000e+00  -7.187499851000e-02  0.0
  1.937500000000e+00  -1.487499997100e-01  0.0
  2.000000000000e+00  -9.749999642000e-02  0.0
 -1.500000060000e-01  -1.700000018000e-01  0.0
 -1.360000037000e-01  -1.525000036000e-01  0.0
 -1.220000014000e-01  -1.350000054000e-01  0.0
 -1.500000060000e-01  -1.457143016000e-01  0.0
 -1.360000037000e-01  -1.282143034000e-01  0.0
 -1.500000060000e-01  -1.214286014000e-01  0.0
  2.849999964000e-01  -2.333333530000e-02  0.0
  2.837499976000e-01  -8.166666795000e-02  0.0
  2.824999988000e-01  -1.400000006000e-01  0.0
  3.174999952000e-01  -4.666666780000e-02  0.0
  3.162499964000e-01  -1.050000004500e-01  0.0
  3.499999940000e-01  -7.000000030000e-02  0.0
 -1.071429029000e-01  -1.700000018000e-01  0.0
 -8.571431040000e-02  -1.700000018000e-01  0.0
 -6.428571790000e-02  -1.700000018000e-01  0.0
 -9.857145324000e-02  -1.525000036000e-01  0.0
 -7.714286074000e-02  -1.525000036000e-01  0.0
 -9.000000358000e-02  -1.350000054000e-01  0.0
 -1.312499940000e-01  -2.000000030000e-01  0.0
 -1.191964484500e-01  -1.850000024000e-01  0.0
 -1.071429029000e-01  -1.700000018000e-01  0.0
 -1.406250000000e-01  -1.850000024000e-01  0.0
 -1.285714544500e-01  -1.700000018000e-01  0.0
 -1.500000060000e-01  -1.700000018000e-01  0.0
 -1.220000014000e-01  -1.350000054000e-01  0.0
 -1.060000024900e-01  -1.350000054000e-01  0.0
 -9.000000358000e-02  -1.350000054000e-01  0.0
 -1.185000017500e-01  -1.175000034500e-01  0.0
 -1.025000028400e-01  -1.175000034500e-01  0.0
 -1.150000021000e-01  -1.000000015000e-01  0.0
 -9.000000358000e-02  -1.350000054000e-01  0.0
 -1.060000024900e-01  -1.350000054000e-01  0.0
 -1.220000014000e-01  -1.350000054000e-01  0.0
 -9.857145324000e-02  -1.525000036000e-01  0.0
 -1.145714521500e-01  -1.525000036000e-01  0.0
 -1.071429029000e-01  -1.700000018000e-01  0.0
 -7.778175920000e-02  -9.192386270000e-02  0.0
 -9.639088065000e-02  -9.596193210000e-02  0.0
 -1.150000021000e-01  -1.000000015000e-01  0.0
 -8.389088139000e-02  -1.134619340500e-01  0.0
 -1.025000028400e-01  -1.175000034500e-01  0.0
 -9.000000358000e-02  -1.350000054000e-01  0.0
 -1.220000014000e-01  -1.350000054000e-01  0.0
 -1.185000017500e-01  -1.175000034500e-01  0.0
 -1.150000021000e-01  -1.000000015000e-01  0.0
 -1.360000037000e-01  -1.282143034000e-01  0.0
 -1.325000040500e-01  -1.107143014500e-01  0.0
 -1.500000060000e-01  -1.214286014000e-01  0.0
 -7.778175920000e-02  -9.192386270000e-02  0.0
 -8.389088139000e-02  -1.134619340500e-01  0.0
 -9.000000358000e-02  -1.350000054000e-01  0.0
 -6.639088876500e-02  -1.022535823500e-01  0.0
 -7.250001095500e-02  -1.237916537000e-01  0.0
 -5.500001833000e-02  -1.125833020000e-01  0.0
 -1.071429029000e-01  -1.700000018000e-01  0.0
 -1.145714521500e-01  -1.525000036000e-01  0.0
 -1.220000014000e-01  -1.350000054000e-01  0.0
 -1.285714544500e-01  -1.700000018000e-01  0.0
 -1.360000037000e-01  -1.525000036000e-01  0.0
 -1.500000060000e-01  -1.700000018000e-01  0.0
  6.250000093000e-03  -2.000000030000e-01  0.0
  4.062500153650e-02  -2.000000030000e-01  0.0
  7.500000298000e-02  -2.000000030000e-01  0.0
  1.383928512150e-02  -1.850000024000e-01  0.0
  4.821428656500e-02  -1.850000024000e-01  0.0
  2.142857015000e-02  -1.700000018000e-01  0.0
 -1.500000060000e-01  -7.285714149000e-02  0.0
 -1.500000060000e-01  -9.714287144500e-02  0.0
 -1.500000060000e-01  -1.214286014000e-01  0.0
 -1.325000040500e-01  -8.642857149500e-02  0.0
 -1.325000040500e-01  -1.107143014500e-01  0.0
 -1.150000021000e-01  -1.000000015000e-01  0.0
 -2.000000030000e-01  -6.333333254000e-02  0.0
 -1.750000045000e-01  -6.809523701500e-02  0.0
 -1.500000060000e-01  -7.285714149000e-02  0.0
 -1.750000045000e-01  -4.380952660000e-02  0.0
 -1.500000060000e-01  -4.857143107500e-02  0.0
 -1.500000060000e-01  -2.428572066000e-02  0.0
 -2.000000030000e-01  -6.333333254000e-02  0.0
 -2.000000030000e-01  -8.611111717000e-02  0.0
 -2.000000030000e-01  -1.088889018000e-01  0.0
 -1.750000045000e-01  -6.809523701500e-02  0.0
 -1.750000045000e-01  -9.087302164500e-02  0.0
 -1.500000060000e-01  -7.285714149000e-02  0.0
 -2.000000030000e-01  -6.333333254000e-02  0.0
 -1.750000045000e-01  -4.380952660000e-02  0.0
 -1.500000060000e-01  -2.428572066000e-02  0.0
 -2.000000030000e-01  -4.055555630500e-02  0.0
 -1.750000045000e-01  -2.103175036500e-02  0.0
 -2.000000030000e-01  -1.777778007000e-02  0.0
 -1.500000060000e-01  -2.428572066000e-02  0.0
 -1.500000060000e-01  -4.857143107500e-02  0.0
 -1.500000060000e-01  -7.285714149000e-02  0.0
 -1.281259023000e-01  -2.896608505500e-02  0.0
 -1.281259023000e-01  -5.325179547000e-02  0.0
 -1.062517986000e-01  -3.364644945000e-02  0.0
 -1.099999994000e-01   1.996667010000e-08  0.0
 -1.300000027000e-01  -1.214285034666e-02  0.0
 -1.500000060000e-01  -2.428572066000e-02  0.0
 -1.081258990000e-01  -1.682321474166e-02  0.0
 -1.281259023000e-01  -2.896608505500e-02  0.0
 -1.062517986000e-01  -3.364644945000e-02  0.0
 -1.500000060000e-01  -2.428572066000e-02  0.0
 -1.500000060000e-01   0.000000000000e+00  0.0
 -1.500000060000e-01   2.428572066000e-02  0.0
 -1.750000045000e-01  -2.103175036500e-02  0.0
 -1.750000045000e-01   3.253970295000e-03  0.0
 -2.000000030000e-01  -1.777778007000e-02  0.0
 -1.500000060000e-01  -7.285714149000e-02  0.0
 -1.226314045700e-01  -6.892856210000e-02  0.0
 -9.526280314000e-02  -6.499998271000e-02  0.0
 -1.281259023000e-01  -5.325179547000e-02  0.0
 -1.007573008700e-01  -4.932321608000e-02  0.0
 -1.062517986000e-01  -3.364644945000e-02  0.0
  3.499999940000e-01   1.400000006000e-01  0.0
  4.021931737500e-01   1.224999986500e-01  0.0
  4.543863535000e-01   1.049999967000e-01  0.0
  4.187500029500e-01   1.749999970000e-01  0.0
  4.709431827000e-01   1.574999950500e-01  0.0
  4.875000119000e-01   2.099999934000e-01  0.0
 -7.101409137000e-02  -4.349999130000e-02  0.0
 -8.313844725500e-02  -5.424998700500e-02  0.0
 -9.526280314000e-02  -6.499998271000e-02  0.0
 -6.449843011500e-02  -5.250913650000e-02  0.0
 -7.662278600000e-02  -6.325913220500e-02  0.0
 -5.798276886000e-02  -6.151828170000e-02  0.0
 -9.526280314000e-02  -6.499998271000e-02  0.0
 -1.226314045700e-01  -6.892856210000e-02  0.0
 -1.500000060000e-01  -7.285714149000e-02  0.0
 -1.051314026200e-01  -8.249999210500e-02  0.0
 -1.325000040500e-01  -8.642857149500e-02  0.0
 -1.150000021000e-01  -1.000000015000e-01  0.0
 -6.181925908000e-02  -1.656441018000e-02  0.0
 -7.051259093000e-02  -1.954082492500e-02  0.0
 -7.920592278000e-02  -2.251723967000e-02  0.0
 -5.862244405000e-02  -2.428220026000e-02  0.0
 -6.731577590000e-02  -2.725861500500e-02  0.0
 -5.542562902000e-02  -3.199999034000e-02  0.0
 -7.920592278000e-02  -2.251723967000e-02  0.0
 -9.272886069000e-02  -2.808184456000e-02  0.0
 -1.062517986000e-01  -3.364644945000e-02  0.0
 -7.511000707500e-02  -3.300861548500e-02  0.0
 -8.863294498500e-02  -3.857322037500e-02  0.0
 -7.101409137000e-02  -4.349999130000e-02  0.0
 -7.101409137000e-02  -4.349999130000e-02  0.0
 -6.321986019500e-02  -3.774999082000e-02  0.0
 -5.542562902000e-02  -3.199999034000e-02  0.0
 -7.511000707500e-02  -3.300861548500e-02  0.0
 -6.731577590000e-02  -2.725861500500e-02  0.0
 -7.920592278000e-02  -2.251723967000e-02  0.0
 -7.920592278000e-02  -2.251723967000e-02  0.0
 -9.460296109000e-02  -1.125860985166e-02  0.0
 -1.099999994000e-01   1.996667010000e-08  0.0
 -9.272886069000e-02  -2.808184456000e-02  0.0
 -1.081258990000e-01  -1.682321474166e-02  0.0
 -1.062517986000e-01  -3.364644945000e-02  0.0
 -7.778175920000e-02  -9.192386270000e-02  0.0
 -6.788226403000e-02  -7.672107220000e-02  0.0
 -5.798276886000e-02  -6.151828170000e-02  0.0
 -8.652228117000e-02  -7.846192270500e-02  0.0
 -7.662278600000e-02  -6.325913220500e-02  0.0
 -9.526280314000e-02  -6.499998271000e-02  0.0
 -7.101409137000e-02  -4.349999130000e-02  0.0
 -8.863294498500e-02  -3.857322037500e-02  0.0
 -1.062517986000e-01  -3.364644945000e-02  0.0
 -8.313844725500e-02  -5.424998700500e-02  0.0
 -1.007573008700e-01  -4.932321608000e-02  0.0
 -9.526280314000e-02  -6.499998271000e-02  0.0
 -7.778175920000e-02  -9.192386270000e-02  0.0
 -8.652228117000e-02  -7.846192270500e-02  0.0
 -9.526280314000e-02  -6.499998271000e-02  0.0
 -9.639088065000e-02  -9.596193210000e-02  0.0
 -1.051314026200e-01  -8.249999210500e-02  0.0
 -1.150000021000e-01  -1.000000015000e-01  0.0
[...]
POINT_DATA 2244
SCALARS field1 double 1
LOOKUP_TABLE default
  9.538277657692e-04 
  1.607404045643e-03 
  2.260980325517e-03 
  5.318503023303e-04 
  1.185426582204e-03 
  1.098728388913e-04 
  5.914948308878e-03 
  3.575917348642e-03 
  1.236886388406e-03 
  3.398948732638e-03 
  1.059917772402e-03 
  8.829491563982e-04 
  2.607295159666e-03 
  3.011033123714e-03 
  3.414771087763e-03 
  3.236989634246e-03 
  3.640727598294e-03 
  3.866684108826e-03 
  3.083987275126e-03 
  2.688523532096e-03 
  2.293059789067e-03 
  2.812079985382e-03 
  2.416616242353e-03 
  2.540172695639e-03 
  4.213257274749e-03 
  4.091342632502e-03 
  3.969427990255e-03 
  3.947199803799e-03 
  3.825285161552e-03 
  3.681142332849e-03 
  4.193651142222e-03 
  4.166995560747e-03 
  4.140339979272e-03 
  4.201724488221e-03 
  4.175068906747e-03 
  4.209797834221e-03 
  2.919043170034e-03 
  3.442747171609e-03 
  3.966451173184e-03 
  3.216502083314e-03 
  3.740206084889e-03 
  3.513960996594e-03 
  4.096887226874e-03 
  4.109173706028e-03 
  4.121460185182e-03 
  4.106902797446e-03 
  4.119189276600e-03 
  4.116918368019e-03 
  3.843460040849e-03 
  4.048726428860e-03 
  4.253992816871e-03 
  3.819230273429e-03 
  4.024496661440e-03 
  3.795000506009e-03 
  1.623745080140e-03 
  2.807355064191e-03 
  3.990965048242e-03 
  2.281420759809e-03 
  3.465030743860e-03 
  2.939096439478e-03 
  3.780099075445e-03 
  3.880384462236e-03 
  3.980669849026e-03 
  3.892296929470e-03 
  3.992582316260e-03 
  4.004494783494e-03 
  4.004505376548e-03 
  3.835903369761e-03 
  3.667301362974e-03 
  3.824217542093e-03 
  3.655615535307e-03 
  3.643929707639e-03 
  4.219948763828e-03 
  4.093133949083e-03 
  3.966319134338e-03 
  4.131192306098e-03 
  4.004377491353e-03 
  4.042435848368e-03 
  3.830557857643e-03 
  3.949233959675e-03 
  4.067910061706e-03 
  3.828029112691e-03 
  3.946705214722e-03 
  3.825500367739e-03 
  4.380353798679e-03 
  4.244502059435e-03 
  4.108650320191e-03 
  4.419049735653e-03 
  4.283197996409e-03 
  4.457745672627e-03 
  3.490678031444e-03 
  3.521448268292e-03 
  3.552218505141e-03 
  3.245200180708e-03 
  3.275970417557e-03 
  2.999722329973e-03 
  1.031352508334e-03 
  1.209830504315e-03 
  1.388308500295e-03 
  3.850406569775e-03 
  4.028884565756e-03 
  6.669460631216e-03 
  4.148155656484e-03 
  4.003067984262e-03 
  3.857980312040e-03 
  4.118207774388e-03 
  3.973120102166e-03 
  4.088259892292e-03 
  4.956857906586e-03 
  4.715002425674e-03 
  4.473146944762e-03 
  4.808347670233e-03 
  4.566492189321e-03 
  4.659837433880e-03 
  4.899169236025e-03 
  4.514690401031e-03 
  4.130211566037e-03 
  4.644238278758e-03 
  4.259759443764e-03 
  4.389307321491e-03 
  4.980535625384e-03 
  4.836951783849e-03 
  4.693367942313e-03 
  5.140683798948e-03 
  4.997099957413e-03 
  5.300831972513e-03 
  4.290908209501e-03 
  4.247331789758e-03 
  4.203755370016e-03 
  4.072283154887e-03 
  4.028706735144e-03 
  3.853658100273e-03 
  3.737930126620e-03 
  4.036085042155e-03 
  4.334239957690e-03 
  3.796014671704e-03 
  4.094169587239e-03 
  3.854099216788e-03 
  4.743599122879e-03 
  4.736161744764e-03 
  4.728724366648e-03 
  5.029953795292e-03 
  5.022516417177e-03 
  5.316308467705e-03 
  4.174864278709e-03 
  4.093030743989e-03 
  4.011197209268e-03 
  4.029194715463e-03 
  3.947361180742e-03 
  3.883525152216e-03 
  4.266142754259e-03 
  4.219410989504e-03 
  4.172679224749e-03 
  4.148043864041e-03 
  4.101312099286e-03 
  4.029944973823e-03 
  3.442004593380e-03 
  3.752863339677e-03 
  4.063722085975e-03 
  3.797010619076e-03 
  4.107869365374e-03 
  4.152016644772e-03 
  4.056402018479e-03 
  4.092462557343e-03 
  4.128523096207e-03 
  4.061159187810e-03 
  4.097219726675e-03 
  4.065916357142e-03 
  1.664159922691e-03 
  2.287742525559e-03 
  2.911325128428e-03 
  2.280311510438e-03 
  2.903894113306e-03 
  2.896463098184e-03 
  2.901826826850e-03 
  3.297160557859e-03 
  3.692494288868e-03 
  3.141705801749e-03 
  3.537039532758e-03 
  3.381584776649e-03 
  3.242809292432e-03 
  3.088457517669e-03 
  2.934105742906e-03 
  3.063620768671e-03 
  2.909268993908e-03 
  2.884432244909e-03 
  2.789999207572e-03 
  3.120998175756e-03 
  3.451997143940e-03 
  3.218180700317e-03 
  3.549179668501e-03 
  3.646362193062e-03 
  4.221225747162e-03 
  4.211792246536e-03 
  4.202358745911e-03 
  4.111761359529e-03 
  4.102327858904e-03 
  4.002296971897e-03 
  3.407150422798e-03 
  3.558796829254e-03 
  3.710443235709e-03 
  3.692500044454e-03 
  3.844146450909e-03 
  3.977849666109e-03 
  4.151552512783e-03 
  4.109412055211e-03 
  4.067271597639e-03 
  4.106273835593e-03 
  4.064133378021e-03 
  4.060995158403e-03 
  2.850710761785e-03 
  2.253428878993e-03 
  1.656146996200e-03 
  2.689381333314e-03 
  2.092099450522e-03 
  2.528051904844e-03 
  4.338381920451e-03 
  4.144333780305e-03 
  3.950285640159e-03 
  4.231811906069e-03 
  4.037763765923e-03 
  4.125241891686e-03 
  4.183178246675e-03 
  4.183684406267e-03 
  4.184190565859e-03 
  4.182238945597e-03 
  4.182745105189e-03 
  4.181299644519e-03 
  4.685256643461e-03 
  4.639248875518e-03 
  4.593241107575e-03 
  4.767325519059e-03 
  4.721317751116e-03 
  4.849394394657e-03 
  4.564083116364e-03 
  4.468316979036e-03 
  4.372550841708e-03 
  4.408449726376e-03 
  4.312683589049e-03 
  4.252816336389e-03 
  4.295273196699e-03 
  4.608110715617e-03 
  4.920948234536e-03 
  4.288361464776e-03 
  4.601198983695e-03 
  4.281449732854e-03 
  4.905809705692e-03 
  4.591003303092e-03 
  4.276196900492e-03 
  4.691816564599e-03 
  4.377010161999e-03 
  4.477823423506e-03 
  5.367641259031e-03 
  5.234375911224e-03 
  5.101110563416e-03 
  4.912072385539e-03 
  4.778807037732e-03 
  4.456503512048e-03 
  6.081216530150e-03 
  5.089325487470e-03 
  4.097434444790e-03 
  5.540076758082e-03 
  4.548185715402e-03 
  4.998936986014e-03 
  4.300767466726e-03 
  4.506394180222e-03 
  4.712020893719e-03 
  4.820424217762e-03 
  5.026050931259e-03 
  5.340080968798e-03 
  4.397270886354e-03 
  4.385197133848e-03 
  4.373123381342e-03 
  4.467475049430e-03 
  4.455401296924e-03 
  4.537679212506e-03 
  5.709258028749e-03 
  5.626052797180e-03 
  5.542847565611e-03 
  5.319514831021e-03 
  5.236309599452e-03 
  4.929771633293e-03 
  4.375004481215e-04 
  5.152823991352e-03 
  9.868147534583e-03 
  7.503497276813e-04 
  5.465673270912e-03 
  1.063199007241e-03 
  5.346181675838e-03 
  6.728955225883e-03 
  8.111728775928e-03 
  6.477693081180e-03 
  7.860466631225e-03 
  7.609204486522e-03 
  7.778892681103e-03 
  6.658209038587e-03 
  5.537525396071e-03 
  6.674383276801e-03 
  5.553699634285e-03 
  5.569873872499e-03 
  7.733964748230e-03 
  8.328708994658e-03 
  8.923453241085e-03 
  4.560844184606e-03 
  5.155588431033e-03 
  1.387723620982e-03 
  5.345622793055e-03 
  6.411940294158e-03 
  7.478257795262e-03 
  5.227942601187e-03 
  6.294260102291e-03 
  5.110262409319e-03 
  5.491597062327e-03 
  6.657665203075e-03 
  7.823733343824e-03 
  5.461756616180e-03 
  6.627824756929e-03 
  5.431916170034e-03 
  5.508787736539e-03 
  5.227231712281e-03 
  4.945675688023e-03 
  5.103157060598e-03 
  4.821601036340e-03 
  4.697526384658e-03 
  4.722575485552e-03 
  4.727835637164e-03 
  4.733095788775e-03 
  4.668132695085e-03 
  4.673392846696e-03 
  4.613689904617e-03 
  6.331261375333e-03 
  5.691479878127e-03 
  5.051698380920e-03 
  7.009014861904e-03 
  6.369233364697e-03 
  7.686768348474e-03 
  5.846430351224e-05 
  1.717902093306e-03 
  3.377339883100e-03 
  2.689471234343e-04 
  1.928384913228e-03 
  4.794299433564e-04 
  3.150144291413e-03 
  3.120013581131e-03 
  3.089882870850e-03 
  3.967694268529e-03 
  3.937563558248e-03 
  4.785244245646e-03 
  6.022664587152e-03 
  3.955133828053e-03 
  1.887603068955e-03 
  3.791517649756e-03 
  1.723986890657e-03 
  1.560370712359e-03 
 -5.424053388571e-05 
  4.805728996528e-04 
  1.015386333191e-03 
  7.137138671530e-04 
  1.248527300692e-03 
  1.481668268192e-03 
  1.702314151360e-04 
  5.326155742508e-05 
 -6.370830028586e-05 
  1.605630574375e-03 
  1.488660716664e-03 
  3.041029733613e-03 
  4.501662804051e-03 
  3.472892604057e-03 
  2.444122404063e-03 
  3.996918399545e-03 
  2.968148199551e-03 
  3.492173995038e-03 
  3.199569873491e-03 
  4.192244658026e-03 
  5.184919442561e-03 
  1.963703441164e-03 
  2.956378225700e-03 
  7.278370088379e-04 
 -4.931752082984e-05 
  7.088533442003e-04 
  1.467024209230e-03 
  1.426879420298e-03 
  2.185050285329e-03 
  2.903076361427e-03 
  6.354115451823e-04 
  7.721075657064e-04 
  9.088035862306e-04 
  4.626906294874e-03 
  4.763602315398e-03 
  8.618401044566e-03 
  8.097536845244e-04 
  5.272817915723e-03 
  9.735882146923e-03 
  6.786176663230e-04 
  5.141681897522e-03 
  5.474816481216e-04 
  5.283771692425e-03 
  4.319765856992e-03 
  3.355760021560e-03 
  4.894014712619e-03 
  3.930008877187e-03 
  4.504257732813e-03 
  2.456655023331e-04 
  3.088617018066e-03 
  5.931568533800e-03 
  5.956911934992e-04 
  3.438642709232e-03 
  9.457168846653e-04 
  1.523570434898e-03 
  3.938153522487e-03 
  6.352736610076e-03 
  4.820582295657e-03 
  7.235165383246e-03 
  8.117594156416e-03 
  5.175676143336e-03 
  3.940598638129e-03 
  2.705521132923e-03 
  5.116902568889e-03 
  3.881825063682e-03 
  5.058128994441e-03 
  4.857165106281e-03 
  2.874159532076e-03 
  8.911539578702e-04 
  2.981213522599e-03 
  9.982079483942e-04 
  1.105261938918e-03 
  1.537066920002e-03 
  3.539495273009e-03 
  5.541923626016e-03 
  3.906055972740e-03 
  5.908484325747e-03 
  6.275045025479e-03 
  5.117549100906e-03 
  4.571559190189e-03 
  4.025569279472e-03 
  5.642714107264e-03 
  5.096724196547e-03 
  6.167879113622e-03 
  4.994905849113e-03 
  3.762025901267e-03 
  2.529145953421e-03 
  4.885723691772e-03 
  3.652843743926e-03 
  4.776541534431e-03 
  5.449948836152e-03 
  5.084204852458e-03 
  4.718460868764e-03 
  5.183853313107e-03 
  4.818109329413e-03 
  4.917757790061e-03 
  4.705298467326e-03 
  3.930551517054e-03 
  3.155804566782e-03 
  4.394741596124e-03 
  3.619994645852e-03 
  4.084184724922e-03 
  8.850610862970e-04 
  1.188086586532e-03 
  1.491112086767e-03 
  3.489763508809e-03 
  3.792789009044e-03 
  6.094465931320e-03 
  9.635295851246e-04 
  4.729221330982e-04 
 -1.768531892831e-05 
  4.713257988336e-04 
 -1.928165319291e-05 
 -2.087798745751e-05 
  4.365928574820e-03 
  4.360658651202e-03 
  4.355388727585e-03 
  4.134555051176e-03 
  4.129285127559e-03 
  3.903181527533e-03 
  4.666516164448e-03 
  4.958266717757e-03 
  5.250017271066e-03 
  4.987685511250e-03 
  5.279436064559e-03 
  5.308854858051e-03 
  5.200234043263e-03 
  4.882237737787e-03 
  4.564241432311e-03 
  5.066843076400e-03 
  4.748846770924e-03 
  4.933452109537e-03 
  4.637674185686e-03 
  4.907177266818e-03 
  5.176680347951e-03 
  4.686123863975e-03 
  4.955626945108e-03 
  4.734573542265e-03 
  4.952407635441e-03 
  4.779961216932e-03 
  4.607514798423e-03 
  4.620349616612e-03 
  4.447903198104e-03 
  4.288291597784e-03 
  3.458278695007e-03 
  3.448070520184e-03 
  3.437862345361e-03 
  4.158375308728e-03 
  4.148167133905e-03 
  4.858471922450e-03 
  4.385127781986e-03 
  4.064949422398e-03 
  3.744771062810e-03 
  4.134088395477e-03 
  3.813910035889e-03 
  3.883049008967e-03 
  4.329077342108e-03 
  4.320552625124e-03 
  4.312027908140e-03 
  4.012984828504e-03 
  4.004460111520e-03 
  3.696892314900e-03 
  2.733724242734e-03 
  3.171400757391e-03 
  3.609077272049e-03 
  3.104378640375e-03 
  3.542055155032e-03 
  3.475033038015e-03 
  3.559448548429e-03 
  3.152195401645e-03 
  2.744942254861e-03 
  3.228944341606e-03 
  2.821691194822e-03 
  2.898440134783e-03 
  3.614354264961e-03 
  3.527634118452e-03 
  3.440913971944e-03 
  3.788720821661e-03 
  3.702000675153e-03 
  3.963087378361e-03 
  3.469094121222e-03 
  3.523310284270e-03 
  3.577526447319e-03 
  3.154813008323e-03 
  3.209029171372e-03 
  2.840531895425e-03 
  4.395067411701e-03 
  4.168453582814e-03 
  3.941839753927e-03 
  4.362501671257e-03 
  4.135887842370e-03 
  4.329935930814e-03 
  3.926832186764e-03 
  4.033510239170e-03 
  4.140188291576e-03 
  4.150480494539e-03 
  4.257158546945e-03 
  4.374128802314e-03 
  2.741842845372e-03 
  2.615546211725e-03 
  2.489249578078e-03 
  2.257039748560e-03 
  2.130743114913e-03 
  1.772236651749e-03 
  2.757900082216e-03 
  3.107419391516e-03 
  3.456938700815e-03 
  2.690988384406e-03 
  3.040507693706e-03 
  2.624076686597e-03 
  3.435179312479e-03 
  3.126147389594e-03 
  2.817115466709e-03 
  3.037083625055e-03 
  2.728051702171e-03 
  2.638987937632e-03 
  4.323924484999e-03 
  4.256489620151e-03 
  4.189054755302e-03 
  4.304536740703e-03 
  4.237101875855e-03 
  4.285148996407e-03 
  4.117390565626e-03 
  4.085376062704e-03 
  4.053361559782e-03 
  3.538638984081e-03 
  3.506624481159e-03 
  2.959887402535e-03 
  4.225999903923e-03 
  4.316687578438e-03 
  4.407375252953e-03 
  4.134472266078e-03 
  4.225159940593e-03 
  4.042944628233e-03 
  2.498781673521e-03 
  3.068423264673e-03 
  3.638064855826e-03 
  1.857543044302e-03 
  2.427184635454e-03 
  1.216304415083e-03 
  3.115133484739e-03 
  2.954715424637e-03 
  2.794297364536e-03 
  3.371865269840e-03 
  3.211447209738e-03 
  3.628597054941e-03 
  5.862813833658e-03 
  3.851587518463e-03 
  1.840361203268e-03 
  3.660851139077e-03 
  1.649624823882e-03 
  1.458888444495e-03 
  2.871802771662e-03 
  2.849015758794e-03 
  2.826228745926e-03 
  4.092027901139e-03 
  4.069240888271e-03 
  5.312253030617e-03 
  3.922532342524e-03 
  4.112194779776e-03 
  4.301857217028e-03 
  3.679924578848e-03 
  3.869587016100e-03 
  3.437316815172e-03 
  5.550487189142e-03 
  4.022607512691e-03 
  2.494727836240e-03 
  4.074875480935e-03 
  2.546995804484e-03 
  2.599263772727e-03 
  4.149132833138e-03 
  4.255621418326e-03 
  4.362110003514e-03 
  4.200362929967e-03 
  4.306851515155e-03 
  4.251593026796e-03 
  4.277018653180e-03 
  4.264143842840e-03 
  4.251269032500e-03 
  4.208824842567e-03 
  4.195950032227e-03 
  4.140631031955e-03 
  3.954688391593e-03 
  4.086416836797e-03 
  4.218145282000e-03 
  4.003424365726e-03 
  4.135152810930e-03 
  4.052160339860e-03 
  4.160123357171e-03 
  4.124709132775e-03 
  4.089294908378e-03 
  4.181182413900e-03 
  4.145768189503e-03 
  4.202241470628e-03 
  4.305562541604e-03 
  4.240662580996e-03 
  4.175762620388e-03 
  4.356025154199e-03 
  4.291125193591e-03 
  4.406487766794e-03 
  3.909944574027e-03 
  3.921486972437e-03 
  3.933029370847e-03 
  3.717621623332e-03 
  3.729164021742e-03 
  3.525298672636e-03 
  4.532500803183e-03 
  4.610560413883e-03 
  4.688620024583e-03 
  4.441079839313e-03 
  4.519139450013e-03 
  4.349658875443e-03 
  4.287408830144e-03 
  4.233838135681e-03 
  4.180267441217e-03 
  4.227261243476e-03 
  4.173690549012e-03 
  4.167113656807e-03 
  4.329750186190e-03 
  4.324949422309e-03 
  4.320148658428e-03 
  4.253517722472e-03 
  4.248716958591e-03 
  4.177285258753e-03 
  4.782185445700e-03 
  4.610333206526e-03 
  4.438480967352e-03 
  3.995645217275e-03 
  3.823792978101e-03 
  3.209104988850e-03 
  3.952131415101e-03 
  3.801553366194e-03 
  3.650975317288e-03 
  4.142563158847e-03 
  3.991985109941e-03 
  4.332994902593e-03 
  4.167573264681e-03 
  4.195927600545e-03 
  4.224281936410e-03 
  4.194980383514e-03 
  4.223334719378e-03 
  4.222387502347e-03 
  9.924532766073e-04 
  4.861116376130e-04 
 -2.023000138138e-05 
  1.361808460660e-03 
  8.554668216659e-04 
  1.731163644713e-03 
  9.550540396208e-04 
  4.640831917312e-04 
 -2.688765615846e-05 
  4.743729655904e-04 
 -1.659788229920e-05 
 -6.308108439940e-06 
  1.808259852034e-03 
  1.075341730671e-03 
  3.424236093072e-04 
  2.303298424745e-03 
  1.570380303382e-03 
  2.798336997457e-03 
  4.553297453035e-03 
  3.704736912196e-03 
  2.856176371357e-03 
  2.467643060650e-03 
  1.619082519811e-03 
  3.819886682655e-04 
  4.495749348744e-03 
  4.418251554583e-03 
  4.340753760422e-03 
  4.098964907203e-03 
  4.021467113041e-03 
  3.702180465661e-03 
  4.502735566613e-03 
  4.098100706228e-03 
  3.693465845844e-03 
  3.739495130689e-03 
  3.334860270304e-03 
  2.976254694765e-03 
  2.303018624107e-04 
  1.041110813991e-03 
  1.851919765571e-03 
  9.762150989661e-05 
  9.084304614767e-04 
 -3.505884261744e-05 
  2.765458857513e-03 
  2.303537562088e-03 
  1.841616266663e-03 
  2.804090403619e-03 
  2.342169108194e-03 
  2.842721949725e-03 
  2.390563214082e-04 
  3.197596902823e-04 
  4.004630591564e-04 
  2.488668722891e-03 
  2.569372091765e-03 
  4.738281124373e-03 
  5.621837397937e-03 
  4.131766915330e-03 
  2.641696432723e-03 
  5.120376062861e-03 
  3.630305580254e-03 
  4.618914727784e-03 
  4.253250982739e-03 
  4.241083163119e-03 
  4.228915343500e-03 
  4.247914942871e-03 
  4.235747123252e-03 
  4.242578903004e-03 
  2.288172107001e-03 
  1.775825279080e-03 
  1.263478451160e-03 
  2.470312789639e-03 
  1.957965961719e-03 
  2.652453472278e-03 
  7.718013451314e-03 
  4.043313356132e-03 
  3.686132609506e-04 
  4.302122066616e-03 
  6.274219714347e-04 
  8.862306819188e-04 
  7.370229654690e-03 
  3.865800921093e-03 
  3.613721874962e-04 
  3.921439599576e-03 
  4.170108659790e-04 
  4.726495444617e-04 
  5.022234268983e-03 
  3.694735681390e-03 
  2.367237093796e-03 
  4.685707161602e-03 
  3.358208574009e-03 
  4.349180054221e-03 
  4.410979924492e-03 
  2.551227389921e-03 
  6.914748553502e-04 
  5.609051588962e-03 
  3.749299054391e-03 
  6.807123253432e-03 
  4.085889120192e-03 
  4.168661072161e-03 
  4.251433024131e-03 
  4.145144112277e-03 
  4.227916064247e-03 
  4.204399104363e-03 
  9.230018947803e-03 
  4.899320543078e-03 
  5.686221383524e-04 
  5.236683990495e-03 
  9.059855857701e-04 
  1.243349033188e-03 
  4.414440143465e-03 
  5.322613963120e-03 
  6.230787782776e-03 
  4.603636872986e-03 
  5.511810692641e-03 
  4.792833602507e-03 
  6.328783824438e-03 
  5.336371466090e-03 
  4.343959107742e-03 
  5.439505105064e-03 
  4.447092746716e-03 
  4.550226385690e-03 
  4.753737124784e-03 
  4.605602903607e-03 
  4.457468682430e-03 
  4.687589062371e-03 
  4.539454841195e-03 
  4.621440999959e-03 
  4.380778110440e-03 
  4.338264526245e-03 
  4.295750942049e-03 
  4.482692884189e-03 
  4.440179299994e-03 
  4.584607657938e-03 
  4.699717874136e-03 
  4.639734596637e-03 
  4.579751319138e-03 
  4.825197250926e-03 
  4.765213973427e-03 
  4.950676627716e-03 
  4.972887973934e-03 
  5.193660458922e-03 
  5.414432943909e-03 
  4.854883655132e-03 
  5.075656140120e-03 
  4.736879336331e-03 
  4.505486504521e-03 
  5.570800324501e-03 
  6.636114144481e-03 
  6.065086566539e-03 
  7.130400386519e-03 
  7.624686628556e-03 
  4.482732596268e-03 
  4.743722689705e-03 
  5.004712783141e-03 
  4.533233276381e-03 
  4.794223369818e-03 
  4.583733956495e-03 
  8.056275628908e-03 
  7.976438533643e-03 
  7.896601438377e-03 
  6.806881100329e-03 
  6.727044005064e-03 
  5.557486571751e-03 
  8.102237026368e-03 
  7.618171108573e-03 
  7.134105190779e-03 
  4.759506621018e-03 
  4.275440703223e-03 
  1.416776215668e-03 
  5.042415016009e-03 
  5.317470598663e-03 
  5.592526181317e-03 
  5.395089740296e-03 
  5.670145322950e-03 
  5.747764464584e-03 
  5.422673555234e-03 
  5.156099332686e-03 
  4.889525110138e-03 
  5.001248378116e-03 
  4.734674155568e-03 
  4.579823200999e-03 
  4.695996376152e-03 
  4.803502277139e-03 
  4.911008178126e-03 
  4.803502817630e-03 
  4.911008718617e-03 
  4.911009259107e-03 
  4.678473498553e-03 
  4.706901041600e-03 
  4.735328584646e-03 
  4.564057541158e-03 
  4.592485084204e-03 
  4.449641583762e-03 
  5.642451373124e-03 
  5.652425374188e-03 
  5.662399375252e-03 
  6.627271096397e-03 
  6.637245097461e-03 
  7.612090819670e-03 
  7.516618632742e-03 
  6.517992685799e-03 
  5.519366738856e-03 
  6.039296625084e-03 
  5.040670678141e-03 
  4.561974617425e-03 
  2.048621532287e-03 
  5.033599397716e-03 
  8.018577263146e-03 
  5.351617702785e-03 
  8.336595568214e-03 
  8.654613873282e-03 