# vtk DataFile Version 2
NuDG++ 2D simulation
ASCII
DATASET UNSTRUCTURED_GRID

POINTS 7854 double
 -1.656250060000e-01  -2.000000030000e-01  0.0
 -1.725000054000e-01  -1.908888817000e-01  0.0
 -1.793750048000e-01  -1.817777604000e-01  0.0
 -1.862500042000e-01  -1.726666391000e-01  0.0
 -1.931250036000e-01  -1.635555178000e-01  0.0
 -2.000000030000e-01  -1.544443965000e-01  0.0
 -1.725000054000e-01  -2.000000030000e-01  0.0
 -1.793750048000e-01  -1.908888817000e-01  0.0
 -1.862500042000e-01  -1.817777604000e-01  0.0
 -1.931250036000e-01  -1.726666391000e-01  0.0
 -2.000000030000e-01  -1.635555178000e-01  0.0
 -1.793750048000e-01  -2.000000030000e-01  0.0
 -1.862500042000e-01  -1.908888817000e-01  0.0
 -1.931250036000e-01  -1.817777604000e-01  0.0
 -2.000000030000e-01  -1.726666391000e-01  0.0
 -1.862500042000e-01  -2.000000030000e-01  0.0
 -1.931250036000e-01  -1.908888817000e-01  0.0
 -2.000000030000e-01  -1.817777604000e-01  0.0
 -1.931250036000e-01  -2.000000030000e-01  0.0
 -2.000000030000e-01  -1.908888817000e-01  0.0
 -2.000000030000e-01  -2.000000030000e-01  0.0
 -6.428571790000e-02  -1.700000018000e-01  0.0
 -7.080357372400e-02  -1.760000020400e-01  0.0
 -7.732142954800e-02  -1.820000022800e-01  0.0
 -8.383928537200e-02  -1.880000025200e-01  0.0
 -9.035714119600e-02  -1.940000027600e-01  0.0
 -9.687499702000e-02  -2.000000030000e-01  0.0
 -6.392857432000e-02  -1.760000020400e-01  0.0
 -7.044643014400e-02  -1.820000022800e-01  0.0
 -7.696428596800e-02  -1.880000025200e-01  0.0
 -8.348214179200e-02  -1.940000027600e-01  0.0
 -8.999999761600e-02  -2.000000030000e-01  0.0
 -6.357143074000e-02  -1.820000022800e-01  0.0
 -7.008928656400e-02  -1.880000025200e-01  0.0
 -7.660714238800e-02  -1.940000027600e-01  0.0
 -8.312499821200e-02  -2.000000030000e-01  0.0
 -6.321428716000e-02  -1.880000025200e-01  0.0
 -6.973214298400e-02  -1.940000027600e-01  0.0
 -7.624999880800e-02  -2.000000030000e-01  0.0
 -6.285714358000e-02  -1.940000027600e-01  0.0
 -6.937499940400e-02  -2.000000030000e-01  0.0
 -6.250000000000e-02  -2.000000030000e-01  0.0
 -2.000000030000e-01  -1.544443965000e-01  0.0
 -1.900000036000e-01  -1.478412374800e-01  0.0
 -1.800000042000e-01  -1.412380784600e-01  0.0
 -1.700000048000e-01  -1.346349194400e-01  0.0
 -1.600000054000e-01  -1.280317604200e-01  0.0
 -1.500000060000e-01  -1.214286014000e-01  0.0
 -2.000000030000e-01  -1.453332975600e-01  0.0
 -1.900000036000e-01  -1.387301385400e-01  0.0
 -1.800000042000e-01  -1.321269795200e-01  0.0
 -1.700000048000e-01  -1.255238205000e-01  0.0
 -1.600000054000e-01  -1.189206614800e-01  0.0
 -2.000000030000e-01  -1.362221986200e-01  0.0
 -1.900000036000e-01  -1.296190396000e-01  0.0
 -1.800000042000e-01  -1.230158805800e-01  0.0
 -1.700000048000e-01  -1.164127215600e-01  0.0
 -2.000000030000e-01  -1.271110996800e-01  0.0
 -1.900000036000e-01  -1.205079406600e-01  0.0
 -1.800000042000e-01  -1.139047816400e-01  0.0
 -2.000000030000e-01  -1.180000007400e-01  0.0
 -1.900000036000e-01  -1.113968417200e-01  0.0
 -2.000000030000e-01  -1.088889018000e-01  0.0
 -1.500000060000e-01  -1.214286014000e-01  0.0
 -1.600000054000e-01  -1.280317604200e-01  0.0
 -1.700000048000e-01  -1.346349194400e-01  0.0
 -1.800000042000e-01  -1.412380784600e-01  0.0
 -1.900000036000e-01  -1.478412374800e-01  0.0
 -2.000000030000e-01  -1.544443965000e-01  0.0
 -1.500000060000e-01  -1.311428814800e-01  0.0
 -1.600000054000e-01  -1.377460405000e-01  0.0
 -1.700000048000e-01  -1.443491995200e-01  0.0
 -1.800000042000e-01  -1.509523585400e-01  0.0
 -1.900000036000e-01  -1.575555175600e-01  0.0
 -1.500000060000e-01  -1.408571615600e-01  0.0
 -1.600000054000e-01  -1.474603205800e-01  0.0
 -1.700000048000e-01  -1.540634796000e-01  0.0
 -1.800000042000e-01  -1.606666386200e-01  0.0
 -1.500000060000e-01  -1.505714416400e-01  0.0
 -1.600000054000e-01  -1.571746006600e-01  0.0
 -1.700000048000e-01  -1.637777596800e-01  0.0
 -1.500000060000e-01  -1.602857217200e-01  0.0
 -1.600000054000e-01  -1.668888807400e-01  0.0
 -1.500000060000e-01  -1.700000018000e-01  0.0
 -1.500000060000e-01  -7.285714149000e-02  0.0
 -1.600000054000e-01  -8.006349355200e-02  0.0
 -1.700000048000e-01  -8.726984561400e-02  0.0
 -1.800000042000e-01  -9.447619767600e-02  0.0
 -1.900000036000e-01  -1.016825497380e-01  0.0
 -2.000000030000e-01  -1.088889018000e-01  0.0
 -1.500000060000e-01  -8.257143347200e-02  0.0
 -1.600000054000e-01  -8.977778553400e-02  0.0
 -1.700000048000e-01  -9.698413759600e-02  0.0
 -1.800000042000e-01  -1.041904896580e-01  0.0
 -1.900000036000e-01  -1.113968417200e-01  0.0
 -1.500000060000e-01  -9.228572545400e-02  0.0
 -1.600000054000e-01  -9.949207751600e-02  0.0
 -1.700000048000e-01  -1.066984295780e-01  0.0
 -1.800000042000e-01  -1.139047816400e-01  0.0
 -1.500000060000e-01  -1.020000174360e-01  0.0
 -1.600000054000e-01  -1.092063694980e-01  0.0
 -1.700000048000e-01  -1.164127215600e-01  0.0
 -1.500000060000e-01  -1.117143094180e-01  0.0
 -1.600000054000e-01  -1.189206614800e-01  0.0
 -1.500000060000e-01  -1.214286014000e-01  0.0
  1.832975030000e+00  -4.625000060000e-02  0.0
  1.841380024000e+00  -7.700000108000e-02  0.0
  1.849785018000e+00  -1.077500015600e-01  0.0
  1.858190012000e+00  -1.385000020400e-01  0.0
  1.866595006000e+00  -1.692500025200e-01  0.0
  1.875000000000e+00  -2.000000030000e-01  0.0
  1.866380024000e+00  -5.649999976400e-02  0.0
  1.874785018000e+00  -8.725000024400e-02  0.0
  1.883190012000e+00  -1.180000007240e-01  0.0
  1.891595006000e+00  -1.487500012040e-01  0.0
  1.900000000000e+00  -1.795000016840e-01  0.0
  1.899785018000e+00  -6.674999892800e-02  0.0
  1.908190012000e+00  -9.749999940800e-02  0.0
  1.916595006000e+00  -1.282499998880e-01  0.0
  1.925000000000e+00  -1.590000003680e-01  0.0
  1.933190012000e+00  -7.699999809200e-02  0.0
  1.941595006000e+00  -1.077499985720e-01  0.0
  1.950000000000e+00  -1.384999990520e-01  0.0
  1.966595006000e+00  -8.724999725600e-02  0.0
  1.975000000000e+00  -1.179999977360e-01  0.0
  2.000000000000e+00  -9.749999642000e-02  0.0
 -1.500000060000e-01  -1.700000018000e-01  0.0
 -1.444000050800e-01  -1.630000025200e-01  0.0
 -1.388000041600e-01  -1.560000032400e-01  0.0
 -1.332000032400e-01  -1.490000039600e-01  0.0
 -1.276000023200e-01  -1.420000046800e-01  0.0
 -1.220000014000e-01  -1.350000054000e-01  0.0
 -1.500000060000e-01  -1.602857217200e-01  0.0
 -1.444000050800e-01  -1.532857224400e-01  0.0
 -1.388000041600e-01  -1.462857231600e-01  0.0
 -1.332000032400e-01  -1.392857238800e-01  0.0
 -1.276000023200e-01  -1.322857246000e-01  0.0
 -1.500000060000e-01  -1.505714416400e-01  0.0
 -1.444000050800e-01  -1.435714423600e-01  0.0
 -1.388000041600e-01  -1.365714430800e-01  0.0
 -1.332000032400e-01  -1.295714438000e-01  0.0
 -1.500000060000e-01  -1.408571615600e-01  0.0
 -1.444000050800e-01  -1.338571622800e-01  0.0
 -1.388000041600e-01  -1.268571630000e-01  0.0
 -1.500000060000e-01  -1.311428814800e-01  0.0
 -1.444000050800e-01  -1.241428822000e-01  0.0
 -1.500000060000e-01  -1.214286014000e-01  0.0
  2.849999964000e-01  -2.333333530000e-02  0.0
  2.844999968800e-01  -4.666666836000e-02  0.0
  2.839999973600e-01  -7.000000142000e-02  0.0
  2.834999978400e-01  -9.333333448000e-02  0.0
  2.829999983200e-01  -1.166666675400e-01  0.0
  2.824999988000e-01  -1.400000006000e-01  0.0
  2.979999959200e-01  -3.266666830000e-02  0.0
  2.974999964000e-01  -5.600000136000e-02  0.0
  2.969999968800e-01  -7.933333442000e-02  0.0
  2.964999973600e-01  -1.026666674800e-01  0.0
  2.959999978400e-01  -1.260000005400e-01  0.0
  3.109999954400e-01  -4.200000130000e-02  0.0
  3.104999959200e-01  -6.533333436000e-02  0.0
  3.099999964000e-01  -8.866666742000e-02  0.0
  3.094999968800e-01  -1.120000004800e-01  0.0
  3.239999949600e-01  -5.133333430000e-02  0.0
  3.234999954400e-01  -7.466666736000e-02  0.0
  3.229999959200e-01  -9.800000042000e-02  0.0
  3.369999944800e-01  -6.066666730000e-02  0.0
  3.364999949600e-01  -8.400000036000e-02  0.0
  3.499999940000e-01  -7.000000030000e-02  0.0
 -1.071429029000e-01  -1.700000018000e-01  0.0
 -9.857146590000e-02  -1.700000018000e-01  0.0
 -9.000002890000e-02  -1.700000018000e-01  0.0
 -8.142859190000e-02  -1.700000018000e-01  0.0
 -7.285715490000e-02  -1.700000018000e-01  0.0
 -6.428571790000e-02  -1.700000018000e-01  0.0
 -1.037143230360e-01  -1.630000025200e-01  0.0
 -9.514288603600e-02  -1.630000025200e-01  0.0
 -8.657144903600e-02  -1.630000025200e-01  0.0
 -7.800001203600e-02  -1.630000025200e-01  0.0
 -6.942857503600e-02  -1.630000025200e-01  0.0
 -1.002857431720e-01  -1.560000032400e-01  0.0
 -9.171430617200e-02  -1.560000032400e-01  0.0
 -8.314286917200e-02  -1.560000032400e-01  0.0
 -7.457143217200e-02  -1.560000032400e-01  0.0
 -9.685716330800e-02  -1.490000039600e-01  0.0
 -8.828572630800e-02  -1.490000039600e-01  0.0
 -7.971428930800e-02  -1.490000039600e-01  0.0
 -9.342858344400e-02  -1.420000046800e-01  0.0
 -8.485714644400e-02  -1.420000046800e-01  0.0
 -9.000000358000e-02  -1.350000054000e-01  0.0
 -1.312499940000e-01  -2.000000030000e-01  0.0
 -1.264285757800e-01  -1.940000027600e-01  0.0
 -1.216071575600e-01  -1.880000025200e-01  0.0
 -1.167857393400e-01  -1.820000022800e-01  0.0
 -1.119643211200e-01  -1.760000020400e-01  0.0
 -1.071429029000e-01  -1.700000018000e-01  0.0
 -1.349999964000e-01  -1.940000027600e-01  0.0
 -1.301785781800e-01  -1.880000025200e-01  0.0
 -1.253571599600e-01  -1.820000022800e-01  0.0
 -1.205357417400e-01  -1.760000020400e-01  0.0
 -1.157143235200e-01  -1.700000018000e-01  0.0
 -1.387499988000e-01  -1.880000025200e-01  0.0
 -1.339285805800e-01  -1.820000022800e-01  0.0
 -1.291071623600e-01  -1.760000020400e-01  0.0
 -1.242857441400e-01  -1.700000018000e-01  0.0
 -1.425000012000e-01  -1.820000022800e-01  0.0
 -1.376785829800e-01  -1.760000020400e-01  0.0
 -1.328571647600e-01  -1.700000018000e-01  0.0
 -1.462500036000e-01  -1.760000020400e-01  0.0
 -1.414285853800e-01  -1.700000018000e-01  0.0
 -1.500000060000e-01  -1.700000018000e-01  0.0
[...]
POINT_DATA 7854
SCALARS field1 double 1
LOOKUP_TABLE default
 -1.049289476105e-06 
  1.190581109913e-02 
  1.370481416424e-02 
  1.395012501485e-02 
  1.536370578444e-02 
  1.803651979202e-02 
 -3.901653083458e-06 
  9.861750705538e-03 
  1.123281201116e-02 
  1.217303070334e-02 
  1.478304947600e-02 
  1.590256671285e-06 
  7.466491574217e-03 
  8.938832695038e-03 
  1.136357612033e-02 
  1.058196075335e-05 
  5.135109799678e-03 
  7.759673726130e-03 
 -2.633524554157e-06 
  3.963250370927e-03 
  3.246303648808e-06 
  3.461176893477e-02 
  3.357670911912e-02 
  3.167231532763e-02 
  2.747155989145e-02 
  1.826224841601e-02 
 -8.955348771796e-07 
  3.416784565147e-02 
  3.227259839537e-02 
  2.804233623763e-02 
  1.867289212732e-02 
 -2.975095301186e-07 
  3.283399312916e-02 
  2.857444305664e-02 
  1.906090429642e-02 
 -3.443541505318e-07 
  2.907138888978e-02 
  1.942380385856e-02 
 -3.342674908847e-07 
  1.976026321617e-02 
 -2.138616558185e-07 
 -4.619752796670e-07 
  1.803456141433e-02 
  2.083109505049e-02 
  2.373684789570e-02 
  2.616816822900e-02 
  2.810478014500e-02 
  2.967841279980e-02 
  2.109830196955e-02 
  2.354559120861e-02 
  2.596105938721e-02 
  2.796621357113e-02 
  2.956861961352e-02 
  2.398465871172e-02 
  2.611853104961e-02 
  2.808360103587e-02 
  2.969057464662e-02 
  2.668869842421e-02 
  2.853379516513e-02 
  3.009115941183e-02 
  2.921314381204e-02 
  3.079058932975e-02 
  3.155792701734e-02 
  2.967848181317e-02 
  2.810475104344e-02 
  2.616786358830e-02 
  2.373676582941e-02 
  2.083145597825e-02 
  1.803603196973e-02 
  2.840671212804e-02 
  2.652910755959e-02 
  2.420711833658e-02 
  2.128217019405e-02 
  1.783034474441e-02 
  2.713259584571e-02 
  2.496395277536e-02 
  2.224541952088e-02 
  1.881304428980e-02 
  2.590784074121e-02 
  2.345762999966e-02 
  2.035307473566e-02 
  2.478504724785e-02 
  2.206817045629e-02 
  2.376000235813e-02 
  3.461815525440e-02 
  3.465366966497e-02 
  3.444632472316e-02 
  3.392337209456e-02 
  3.300098350486e-02 
  3.155926988147e-02 
  3.385298567096e-02 
  3.357268110019e-02 
  3.300366241637e-02 
  3.208912220628e-02 
  3.079000118219e-02 
  3.297765029308e-02 
  3.236999958203e-02 
  3.141792325919e-02 
  3.009079303494e-02 
  3.199402571114e-02 
  3.103765389883e-02 
  2.969028497776e-02 
  3.089109871294e-02 
  2.956865791931e-02 
  2.967787555387e-02 
  3.524226560822e-02 
  2.979357055515e-02 
  3.052508606469e-02 
  3.004905591782e-02 
  3.304328331814e-02 
  6.332430982223e-04 
  3.127445599886e-02 
  3.152410387889e-02 
  3.067002294077e-02 
  3.050732304261e-02 
  2.963821623163e-02 
  3.122277966839e-02 
  3.144566439924e-02 
  3.043930091941e-02 
  3.091139006875e-02 
  3.106259154746e-02 
  3.098653375047e-02 
  3.013827225239e-02 
  3.156458817478e-02 
  2.985929556849e-02 
  3.236714598798e-02 
  2.375985062390e-02 
  2.544439732650e-02 
  2.692630408023e-02 
  2.824402866767e-02 
  2.942524849799e-02 
  3.047592315491e-02 
  2.478434852821e-02 
  2.639121505328e-02 
  2.781401082953e-02 
  2.907210940277e-02 
  3.017726379810e-02 
  2.590809965288e-02 
  2.743977651325e-02 
  2.877553086150e-02 
  2.993705349876e-02 
  2.713290507098e-02 
  2.854789219627e-02 
  2.976547744018e-02 
  2.840627363107e-02 
  2.967286012137e-02 
  2.967861085161e-02 
  3.170637404230e-02 
  3.098408042631e-02 
  3.132010132409e-02 
  3.144096529762e-02 
  3.140122761462e-02 
  3.288063564051e-02 
  3.121175734615e-02 
  3.115644922007e-02 
  3.136952393439e-02 
  3.137401690154e-02 
  3.152817233286e-02 
  3.121077401657e-02 
  3.131621728996e-02 
  3.137629819234e-02 
  3.135838009814e-02 
  3.140386674434e-02 
  3.138011125660e-02 
  3.134382011876e-02 
  3.138054475581e-02 
  3.147751332902e-02 
  3.097499401765e-02 
  3.026066402022e-02 
  3.126051060883e-02 
  3.218692760752e-02 
  3.305468914824e-02 
  3.386344526747e-02 
  3.461480334838e-02 
  3.096806818474e-02 
  3.190963429681e-02 
  3.279775123961e-02 
  3.363475719089e-02 
  3.442074865342e-02 
  3.160246841073e-02 
  3.249516690801e-02 
  3.334810576275e-02 
  3.416419297825e-02 
  3.222331449548e-02 
  3.307483156343e-02 
  3.390469150903e-02 
  3.282852186067e-02 
  3.365257624669e-02 
  3.342090613049e-02 
 -1.464364630501e-06 
  1.555338776017e-02 
  2.356582621159e-02 
  2.735900870280e-02 
  2.919067549301e-02 
  3.026086997791e-02 
  1.471886197352e-02 
  2.242424400709e-02 
  2.616798017588e-02 
  2.804190915460e-02 
  2.919698865016e-02 
  2.113858468354e-02 
  2.484158470899e-02 
  2.678218694944e-02 
  2.803109874824e-02 
  2.334702894792e-02 
  2.538171940935e-02 
  2.675301907193e-02 
  2.380826754347e-02 
  2.533920562716e-02 
  2.375845798272e-02 
  3.047660636019e-02 
  3.105962251133e-02 
  3.164187314155e-02 
  3.222874683203e-02 
  3.281947746730e-02 
  3.342039569437e-02 
  3.106172073255e-02 
  3.157717491547e-02 
  3.210624103463e-02 
  3.265152420442e-02 
  3.321361361206e-02 
  3.159665292386e-02 
  3.205055412289e-02 
  3.252984791802e-02 
  3.303815899184e-02 
  3.207342487115e-02 
  3.246767033368e-02 
  3.290085691056e-02 
  3.247890510032e-02 
  3.281545509707e-02 
  3.279217022161e-02 
  3.342020791334e-02 
  3.281959942026e-02 
  3.222874125183e-02 
  3.164188219227e-02 
  3.105967054987e-02 
  3.047676046987e-02 
  3.282877511899e-02 
  3.220945702676e-02 
  3.158383360527e-02 
  3.095084511053e-02 
  3.030599238490e-02 
  3.222306540666e-02 
  3.156962429533e-02 
  3.089940073865e-02 
  3.021003677627e-02 
  3.160256311180e-02 
  3.090841390975e-02 
  3.018651682541e-02 
  3.096808680765e-02 
  3.022561228507e-02 
  3.026129963726e-02 
  3.534225188697e-02 
  3.462951965259e-02 
  3.404916900449e-02 
  3.356686349753e-02 
  3.315716577293e-02 
  3.279229692714e-02 
  3.516172317178e-02 
  3.445706119398e-02 
  3.384651882785e-02 
  3.330558870208e-02 
  3.281537906943e-02 
  3.484325569119e-02 
  3.413968196786e-02 
  3.349799871214e-02 
  3.290087460402e-02 
  3.442703773671e-02 
  3.371557878815e-02 
  3.303817869334e-02 
  3.394386315516e-02 
  3.321354236311e-02 
  3.342088990356e-02 
  3.047646403992e-02 
  3.106179306870e-02 
  3.159661905647e-02 
  3.207346153290e-02 
  3.247907314882e-02 
  3.279181716392e-02 
  3.017726171964e-02 
  3.082078114037e-02 
  3.140505804741e-02 
  3.192193455472e-02 
  3.235877464645e-02 
  2.993704765648e-02 
  3.064396560822e-02 
  3.128512007159e-02 
  3.184933647812e-02 
  2.976512757858e-02 
  3.054334434247e-02 
  3.124816616915e-02 
  2.967284350693e-02 
  3.053109448756e-02 
  2.967827659672e-02 
  3.534187646171e-02 
  3.516171628529e-02 
  3.484320458199e-02 
  3.442706683023e-02 
  3.394370656920e-02 
  3.342174801135e-02 
  3.592409759595e-02 
  3.561766486836e-02 
  3.521213465884e-02 
  3.474305784745e-02 
  3.423250571217e-02 
  3.648510536932e-02 
  3.605696286913e-02 
  3.557138811297e-02 
  3.505591852810e-02 
  3.700224513837e-02 
  3.646503920811e-02 
  3.591104936965e-02 
  3.746302642436e-02 
  3.683178303870e-02 
  3.785234990822e-02 
  3.026126246625e-02 
  3.022589302294e-02 
  3.018675375558e-02 
  3.021011990290e-02 
  3.030579529058e-02 
  3.047662399088e-02 
  2.919723868548e-02 
  2.917151725475e-02 
  2.916872581834e-02 
  2.925097356332e-02 
  2.942527242267e-02 
  2.803122213134e-02 
  2.803518563624e-02 
  2.808546665393e-02 
  2.824420517143e-02 
  2.675328971587e-02 
  2.679927456916e-02 
  2.692581942520e-02 
  2.533924390660e-02 
  2.544431727027e-02 
  2.375926616301e-02 
 -2.573288057610e-07 
 -3.403602561160e-07 
 -2.665459579379e-07 
 -3.951565096197e-07 
 -3.231132889214e-07 
 -1.149063785479e-06 
  2.157444625749e-02 
  2.152541312933e-02 
  2.137495754405e-02 
  2.114194850575e-02 
  2.085415865091e-02 
  3.176688970387e-02 
  3.167271251128e-02 
  3.142496795922e-02 
  3.106088295190e-02 
  3.591562415033e-02 
  3.576482929808e-02 
  3.545184716403e-02 
  3.739655663785e-02 
  3.718178695825e-02 
  3.789358458868e-02 
  3.461649315045e-02 
  3.385210837675e-02 
  3.297739691764e-02 
  3.199427080503e-02 
  3.089108347912e-02 
  2.967815607071e-02 
  3.383786395893e-02 
  3.317549337617e-02 
  3.240796813967e-02 
  3.152568237429e-02 
  3.053107062492e-02 
  3.328438969177e-02 
  3.271771993170e-02 
  3.203594172816e-02 
  3.124822580525e-02 
  3.293441961854e-02 
  3.244894770289e-02 
  3.184941450629e-02 
  3.277922836547e-02 
  3.235880756954e-02 
  3.279143256585e-02 
  4.057627304419e-02 
  3.962006117053e-02 
  3.813650718214e-02 
  3.673649717164e-02 
  3.556127514998e-02 
  3.461826052870e-02 
  4.091293842306e-02 
  3.930164401495e-02 
  3.773181585022e-02 
  3.638929133571e-02 
  3.524586627387e-02 
  4.029049760212e-02 
  3.856495831011e-02 
  3.704557952154e-02 
  3.572820016780e-02 
  3.925458002714e-02 
  3.757308689923e-02 
  3.608258022245e-02 
  3.799451285461e-02 
  3.635449308471e-02 
  3.658894262261e-02 
  4.057455878219e-02 
  3.913175645315e-02 
  3.750871929115e-02 
  3.570630124797e-02 
  3.372276299571e-02 
  3.155813951153e-02 
  3.962053249474e-02 
  3.822242168951e-02 
  3.664834346419e-02 
  3.491062580614e-02 
  3.300077643918e-02 
  3.813634219824e-02 
  3.687858334523e-02 
  3.547120104541e-02 
  3.392283135524e-02 
  3.673675240591e-02 
  3.565912170081e-02 
  3.444715527031e-02 
  3.556049436716e-02 
  3.465329425609e-02 
  3.462060711863e-02 
  4.057492791304e-02 
  4.091279484236e-02 
  4.028975623015e-02 
  3.925492944439e-02 
  3.799410228011e-02 
  3.659114833245e-02 
  4.183744113825e-02 
  4.195238137249e-02 
  4.104848793316e-02 
  3.977007459008e-02 
  3.831341212310e-02 
  4.291896045603e-02 
  4.282040051327e-02 
  4.167022772404e-02 
  4.017310848960e-02 
  4.382016229359e-02 
  4.352617242984e-02 
  4.215383671710e-02 
  4.454230442967e-02 
  4.405693164096e-02 
  4.508201720988e-02 
  3.658685519804e-02 
  3.635358376622e-02 
  3.608187522465e-02 
  3.572829169276e-02 
  3.524589621158e-02 
  3.461566294748e-02 
  3.512515218802e-02 
  3.503853632096e-02 
  3.491958651636e-02 
  3.472739463041e-02 
  3.441194810457e-02 
  3.375079459644e-02 
  3.383511517871e-02 
  3.389380610133e-02 
  3.388146829123e-02 
  3.243764630117e-02 
  3.273516751884e-02 
  3.301096160693e-02 
  3.118726767041e-02 
  3.175440269584e-02 
  3.000715853169e-02 
  2.900964587895e-02 
  3.078355724997e-02 
  3.241125922810e-02 
  3.391071943330e-02 
  3.529321180144e-02 
  3.658596169855e-02 
  2.889248242414e-02 
  3.073239665346e-02 
  3.236174077891e-02 
  3.381788983235e-02 
  3.512518185121e-02 
  2.894874687329e-02 
  3.079114850936e-02 
  3.237385490465e-02 
  3.375055025963e-02 
  2.916815376425e-02 
  3.094821678237e-02 
  3.243794601935e-02 
  2.953059531039e-02 
  3.118718102624e-02 
  3.000812466087e-02 
  3.658869736301e-02 
  3.672963646981e-02 
  3.683097056675e-02 
  3.688347612786e-02 
  3.690772733644e-02 
  3.692190115955e-02 
  3.831397866014e-02 
  3.855610689654e-02 
  3.869377645642e-02 
  3.875257501907e-02 
  3.873230200793e-02 
  4.017264923290e-02 
  4.046846635508e-02 
  4.064064207437e-02 
  4.069456196477e-02 
  4.215458472835e-02 
  4.250418767006e-02 
  4.269262824533e-02 
  4.405652868364e-02 
  4.443681807044e-02 
  4.508376034523e-02 
  3.461418510212e-02 
  3.400365766597e-02 
  3.346599784219e-02 
  3.301807181563e-02 
  3.268084969947e-02 
  3.252412668592e-02 
  3.441225936391e-02 
  3.366207598812e-02 
  3.298535726871e-02 
  3.239084587117e-02 
  3.191809915178e-02 
  3.388116891482e-02 
  3.297876052814e-02 
  3.212405437135e-02 
  3.133039630567e-02 
  3.301100604982e-02 
  3.190423364292e-02 
  3.079252226522e-02 
  3.175428487448e-02 
  3.034326655456e-02 
  3.000828201287e-02 
  3.287494870266e-02 
  3.161498634710e-02 
  3.125882952694e-02 
  3.129274014560e-02 
  3.176836665832e-02 
  3.281068062470e-02 
  3.126023014160e-02 
  3.144523550880e-02 
  3.146093040451e-02 
  3.168861792690e-02 
  3.201914119906e-02 
  3.124828011192e-02 
  3.104237315810e-02 
  3.093657523728e-02 
  3.046585530592e-02 
  3.115917916854e-02 
  3.136502733508e-02 
  3.097387905563e-02 
  2.720592286108e-02 
  3.063721060209e-02 
  3.059486424085e-04 
  2.848340349099e-02 
  2.981266181717e-02 
  3.079322160098e-02 
  3.153819166604e-02 
  3.210029951234e-02 
  3.252734972100e-02 
  2.988507120805e-02 
  3.089590439005e-02 
  3.163732519845e-02 
  3.219362290157e-02 
  3.259929357686e-02 
  3.138385388769e-02 
  3.205547166353e-02 
  3.253797325561e-02 
  3.289083717407e-02 
  3.293119298447e-02 
  3.325382555152e-02 
  3.346758299535e-02 
  3.447390112011e-02 
  3.445159029103e-02 
  3.596116739177e-02 
  3.252380015337e-02 
  3.268089395139e-02 
  3.301798581209e-02 
  3.346613853719e-02 
  3.400359747527e-02 
  3.461464779733e-02 
  3.298500996836e-02 
  3.300191118227e-02 
  3.317973861013e-02 
  3.346770976531e-02 
  3.383789998473e-02 
  3.321569463982e-02 
  3.311032918882e-02 
  3.314835865505e-02 
  3.328386010198e-02 
  3.324324281469e-02 
  3.303059560797e-02 
  3.293464164198e-02 
  3.309785463580e-02 
  3.277904911640e-02 
  3.279207636557e-02 
  1.232692168359e-02 
  1.499787749464e-02 
  1.728723215655e-02 
  1.925416037409e-02 
  2.096072695899e-02 
  2.246794490174e-02 
  1.342919930788e-02 
  1.598437903375e-02 
  1.815785953538e-02 
  2.001498139544e-02 
  2.161137776521e-02 
  1.482349763905e-02 
  1.726693241681e-02 
  1.927947250142e-02 
  2.098126821729e-02 
  1.654478653356e-02 
  1.881728548118e-02 
  2.062716219415e-02 
  1.858488512890e-02 
  2.060761632723e-02 
  2.088048913311e-02 
  2.246601565030e-02 
  2.452022733593e-02 
  2.623552715259e-02 
  2.768105059869e-02 
  2.892402681857e-02 
  3.001043883807e-02 
  2.326826412255e-02 
  2.516412545528e-02 
  2.673389922807e-02 
  2.806148486614e-02 
  2.920081305322e-02 
  2.432785628981e-02 
  2.598830819511e-02 
  2.737094058646e-02 
  2.854870623883e-02 
  2.559214317741e-02 
  2.696725041541e-02 
  2.812562054150e-02 
  2.699679703212e-02 
  2.806075143676e-02 
  2.848467330864e-02 
  2.848191892859e-02 
  2.761272965147e-02 
  2.651669746408e-02 
  2.514571177600e-02 
  2.334208699861e-02 
  2.088100724667e-02 
  2.699606277386e-02 
  2.586006773975e-02 
  2.448389119620e-02 
  2.277781406461e-02 
  2.060764656129e-02 
  2.559204480888e-02 
  2.423254200480e-02 
  2.260350045458e-02 
  2.062703220699e-02 
  2.432753269417e-02 
  2.279651275868e-02 
  2.098107266837e-02 
  2.326763628281e-02 
  2.161151601750e-02 
  2.246771344434e-02 
  2.246562349735e-02 
  2.333586105398e-02 
  2.459577291857e-02 
  2.603585811484e-02 
  2.753358410351e-02 
  2.901043010534e-02 
  2.452044811638e-02 
  2.526960720147e-02 
  2.633612831902e-02 
  2.757827649408e-02 
  2.889238150864e-02 
  2.623568086340e-02 
  2.690196485487e-02 
  2.784461227057e-02 
  2.894854164235e-02 
  2.768083011690e-02 
  2.830654382375e-02 
  2.916818255668e-02 
  2.892421810286e-02 
  2.953085034505e-02 
  3.000906171700e-02 
  3.534194947094e-02 
  3.562660133301e-02 
  3.585366216822e-02 
  3.601178793706e-02 
  3.607226084233e-02 
  3.596184190104e-02 
  3.481746550362e-02 
  3.493005296737e-02 
  3.493312349378e-02 
  3.479085829149e-02 
  3.445148110619e-02 
  3.424700891789e-02 
  3.416995351820e-02 
  3.392861596933e-02 
  3.346776721279e-02 
  3.365605196335e-02 
  3.338135753722e-02 
  3.289068651294e-02 
  3.307067985481e-02 
  3.259937830669e-02 
  3.252682877271e-02 
  2.848580359459e-02 
  2.806047839636e-02 
  2.812589206331e-02 
  2.854857590564e-02 
  2.920095490107e-02 
  3.000986098606e-02 
  2.981236083600e-02 
  2.942438293924e-02 
  2.945708308776e-02 
  2.979115128463e-02 
  3.034387156301e-02 
  3.079355375332e-02 
  3.047792497289e-02 
  3.050386856329e-02 
  3.079316319232e-02 
  3.153807509676e-02 
  3.129126215057e-02 
  3.133104424559e-02 
  3.210051163814e-02 
  3.191845188325e-02 
  3.252573542150e-02 
  3.534262059810e-02 
  3.481720992887e-02 
  3.424679385411e-02 
  3.365561894047e-02 
  3.307036030449e-02 
  3.252488772139e-02 
  3.462948392379e-02 
  3.422094245055e-02 
  3.379738303977e-02 
  3.337775197574e-02 
  3.298487709313e-02 
  3.404929006631e-02 
  3.375809102768e-02 
  3.347551105957e-02 
  3.321588007570e-02 
  3.356677483846e-02 
  3.339257802268e-02 
  3.324326372093e-02 
  3.315729168002e-02 
  3.309821191920e-02 
  3.279188820072e-02 
  2.246671186157e-02 
  2.096110261087e-02 
  1.925402322995e-02 
  1.728692952358e-02 
  1.499794183350e-02 
  1.232761655866e-02 
  2.145399202570e-02 
  1.981585279974e-02 
  1.794173968558e-02 
  1.578950703659e-02 
  1.332236749754e-02 
  2.069091398970e-02 
  1.895855931522e-02 
  1.698778414683e-02 
  1.474094283786e-02 
  2.020508827926e-02 
  1.844060966899e-02 
  1.645170080869e-02 
  2.001672138891e-02 
  1.828488648132e-02 
  2.011776962147e-02 
  3.785297216740e-02 
  3.683171585347e-02 
  3.591124783603e-02 
  3.505578595193e-02 
  3.423261369472e-02 
  3.342134293047e-02 
  3.707908117911e-02 
  3.616761437257e-02 
  3.530826749711e-02 
  3.447639150270e-02 
  3.365289171785e-02 
  3.636130310920e-02 
  3.552558465572e-02 
  3.471167478003e-02 
  3.390470478642e-02 
  3.571844462137e-02 
  3.494359927494e-02 
  3.416449576697e-02 
  3.516824161401e-02 
  3.442089310456e-02 
  3.461697002618e-02 
  3.515306357521e-02 
  3.120136265912e-02 
  3.118120498033e-02 
  3.104926451477e-02 
  3.149566843544e-02 
  3.251170224218e-02 
  3.156266523925e-02 
  3.100169371417e-02 
  3.110976845544e-02 
  3.110549686272e-02 
  3.175943378523e-02 
  3.098310565963e-02 
  3.121436057999e-02 
  3.113372829697e-02 
  3.153382168132e-02 
  3.096509358981e-02 
  3.095092590946e-02 
  3.200203581859e-02 
  3.146977456565e-02 
  3.234837966367e-02 
  3.225188712115e-02 
  3.966356648741e-02 
  3.902026960283e-02 
  3.848019546958e-02 
  3.804105147898e-02 
  3.769727038150e-02 
  3.734976240577e-02 
  3.997816370942e-02 
  3.928244195322e-02 
  3.870506326525e-02 
  3.824554685923e-02 
  3.788435932273e-02 
  4.021749346649e-02 
  3.947717168641e-02 
  3.887477530057e-02 
  3.839961288334e-02 
  4.037222902518e-02 
  3.960272252773e-02 
  3.898677497110e-02 
  4.044277446803e-02 
  3.965957344875e-02 
  4.042784706934e-02 
  3.966306499739e-02 
  3.944824433589e-02 
  3.915627560747e-02 
  3.878818065658e-02 
  3.834911404705e-02 
  3.785201202878e-02 
  3.841671149915e-02 
  3.816045654130e-02 
  3.784898844654e-02 
  3.748708527674e-02 
  3.707913259944e-02 
  3.734497656303e-02 
  3.705246803504e-02 
  3.672339170656e-02 
  3.636110944995e-02 
  3.639716016288e-02 
  3.607269101916e-02 
  3.571851086656e-02 
  3.552294168505e-02 
  3.516799273475e-02 
  3.461782698586e-02 
  3.534142014803e-02 
  3.616872737295e-02 
  3.720996476985e-02 
  3.856108467564e-02 
  4.033423972421e-02 
  4.266444332499e-02 
  3.562644462039e-02 
  3.653933930931e-02 
  3.774403526400e-02 
  3.936674307072e-02 
  4.154332086802e-02 
  3.585335894856e-02 
  3.688664225396e-02 
  3.831244965648e-02 
  4.028634015728e-02 
  3.601162529403e-02 
  3.720333593893e-02 
  3.891322664395e-02 
  3.607231903596e-02 
  3.745788789855e-02 
  3.596076938468e-02 
  4.266455205753e-02 
  4.033431514499e-02 
  3.856115482253e-02 
  3.721003207152e-02 
  3.616879347264e-02 
  3.534137950135e-02 
  4.143405651736e-02 
  3.955142933111e-02 
  3.806636942610e-02 
  3.688539101102e-02 
  3.592374938321e-02 
  4.036568768293e-02 
  3.881389292986e-02 
  3.754213797954e-02 
  3.648468730305e-02 
  3.943018022613e-02 
  3.811927118016e-02 
  3.700170861256e-02 
  3.860008966453e-02 
  3.746237757147e-02 
  3.785115340375e-02 
  4.709253617375e-02 
  4.655703151447e-02 
  4.583473038395e-02 
  4.493229317380e-02 
  4.386430327794e-02 
  4.266658772849e-02 
  4.441030960680e-02 
  4.384492045712e-02 
  4.314655435070e-02 
  4.233436670541e-02 
  4.143386733380e-02 
  4.224030140139e-02 
  4.169219236795e-02 
  4.106228031703e-02 
  4.036600291446e-02 
  4.048948662755e-02 
  3.998499444389e-02 
  3.942993675745e-02 
  3.905888777356e-02 
  3.860008395205e-02 
  3.784997849062e-02 
  4.341878429178e-02 
  4.244347018291e-02 
  4.069620081811e-02 