# vtk DataFile Version 2
NuDG++ 2D simulation
ASCII
DATASET UNSTRUCTURED_GRID

POINTS 7854 double
 -1.656250060000e-01  -2.000000030000e-01  0.0
 -1.725000054000e-01  -1.908888817000e-01  0.0
 -1.793750048000e-01  -1.817777604000e-01  0.0
 -1.862500042000e-01  -1.726666391000e-01  0.0
 -1.931250036000e-01  -1.635555178000e-01  0.0
 -2.000000030000e-01  -1.544443965000e-01  0.0
 -1.725000054000e-01  -2.000000030000e-01  0.0
 -1.793750048000e-01  -1.908888817000e-01  0.0
 -1.862500042000e-01  -1.817777604000e-01  0.0
 -1.931250036000e-01  -1.726666391000e-01  0.0
 -2.000000030000e-01  -1.635555178000e-01  0.0
 -1.793750048000e-01  -2.000000030000e-01  0.0
 -1.862500042000e-01  -1.908888817000e-01  0.0
 -1.931250036000e-01  -1.817777604000e-01  0.0
 -2.000000030000e-01  -1.726666391000e-01  0.0
 -1.862500042000e-01  -2.000000030000e-01  0.0
 -1.931250036000e-01  -1.908888817000e-01  0.0
 -2.000000030000e-01  -1.817777604000e-01  0.0
 -1.931250036000e-01  -2.000000030000e-01  0.0
 -2.000000030000e-01  -1.908888817000e-01  0.0
 -2.000000030000e-01  -2.000000030000e-01  0.0
 -6.428571790000e-02  -1.700000018000e-01  0.0
 -7.080357372400e-02  -1.760000020400e-01  0.0
 -7.732142954800e-02  -1.820000022800e-01  0.0
 -8.383928537200e-02  -1.880000025200e-01  0.0
 -9.035714119600e-02  -1.940000027600e-01  0.0
 -9.687499702000e-02  -2.000000030000e-01  0.0
 -6.392857432000e-02  -1.760000020400e-01  0.0
 -7.044643014400e-02  -1.820000022800e-01  0.0
 -7.696428596800e-02  -1.880000025200e-01  0.0
 -8.348214179200e-02  -1.940000027600e-01  0.0
 -8.999999761600e-02  -2.000000030000e-01  0.0
 -6.357143074000e-02  -1.820000022800e-01  0.0
 -7.008928656400e-02  -1.880000025200e-01  0.0
 -7.660714238800e-02  -1.940000027600e-01  0.0
 -8.312499821200e-02  -2.000000030000e-01  0.0
 -6.321428716000e-02  -1.880000025200e-01  0.0
 -6.973214298400e-02  -1.940000027600e-01  0.0
 -7.624999880800e-02  -2.000000030000e-01  0.0
 -6.285714358000e-02  -1.940000027600e-01  0.0
 -6.937499940400e-02  -2.000000030000e-01  0.0
 -6.250000000000e-02  -2.000000030000e-01  0.0
 -2.000000030000e-01  -1.544443965000e-01  0.0
 -1.900000036000e-01  -1.478412374800e-01  0.0
 -1.800000042000e-01  -1.412380784600e-01  0.0
 -1.700000048000e-01  -1.346349194400e-01  0.0
 -1.600000054000e-01  -1.280317604200e-01  0.0
 -1.500000060000e-01  -1.214286014000e-01  0.0
 -2.000000030000e-01  -1.453332975600e-01  0.0
 -1.900000036000e-01  -1.387301385400e-01  0.0
 -1.800000042000e-01  -1.321269795200e-01  0.0
 -1.700000048000e-01  -1.255238205000e-01  0.0
 -1.600000054000e-01  -1.189206614800e-01  0.0
 -2.000000030000e-01  -1.362221986200e-01  0.0
 -1.900000036000e-01  -1.296190396000e-01  0.0
 -1.800000042000e-01  -1.230158805800e-01  0.0
 -1.700000048000e-01  -1.164127215600e-01  0.0
 -2.000000030000e-01  -1.271110996800e-01  0.0
 -1.900000036000e-01  -1.205079406600e-01  0.0
 -1.800000042000e-01  -1.139047816400e-01  0.0
 -2.000000030000e-01  -1.180000007400e-01  0.0
 -1.900000036000e-01  -1.113968417200e-01  0.0
 -2.000000030000e-01  -1.088889018000e-01  0.0
 -1.500000060000e-01  -1.214286014000e-01  0.0
 -1.600000054000e-01  -1.280317604200e-01  0.0
 -1.700000048000e-01  -1.346349194400e-01  0.0
 -1.800000042000e-01  -1.412380784600e-01  0.0
 -1.900000036000e-01  -1.478412374800e-01  0.0
 -2.000000030000e-01  -1.544443965000e-01  0.0
 -1.500000060000e-01  -1.311428814800e-01  0.0
 -1.600000054000e-01  -1.377460405000e-01  0.0
 -1.700000048000e-01  -1.443491995200e-01  0.0
 -1.800000042000e-01  -1.509523585400e-01  0.0
 -1.900000036000e-01  -1.575555175600e-01  0.0
 -1.500000060000e-01  -1.408571615600e-01  0.0
 -1.600000054000e-01  -1.474603205800e-01  0.0
 -1.700000048000e-01  -1.540634796000e-01  0.0
 -1.800000042000e-01  -1.606666386200e-01  0.0
 -1.500000060000e-01  -1.505714416400e-01  0.0
 -1.600000054000e-01  -1.571746006600e-01  0.0
 -1.700000048000e-01  -1.637777596800e-01  0.0
 -1.500000060000e-01  -1.602857217200e-01  0.0
 -1.600000054000e-01  -1.668888807400e-01  0.0
 -1.500000060000e-01  -1.700000018000e-01  0.0
 -1.500000060000e-01  -7.285714149000e-02  0.0
 -1.600000054000e-01  -8.006349355200e-02  0.0
 -1.700000048000e-01  -8.726984561400e-02  0.0
 -1.800000042000e-01  -9.447619767600e-02  0.0
 -1.900000036000e-01  -1.016825497380e-01  0.0
 -2.000000030000e-01  -1.088889018000e-01  0.0
 -1.500000060000e-01  -8.257143347200e-02  0.0
 -1.600000054000e-01  -8.977778553400e-02  0.0
 -1.700000048000e-01  -9.698413759600e-02  0.0
 -1.800000042000e-01  -1.041904896580e-01  0.0
 -1.900000036000e-01  -1.113968417200e-01  0.0
 -1.500000060000e-01  -9.228572545400e-02  0.0
 -1.600000054000e-01  -9.949207751600e-02  0.0
 -1.700000048000e-01  -1.066984295780e-01  0.0
 -1.800000042000e-01  -1.139047816400e-01  0.0
 -1.500000060000e-01  -1.020000174360e-01  0.0
 -1.600000054000e-01  -1.092063694980e-01  0.0
 -1.700000048000e-01  -1.164127215600e-01  0.0
 -1.500000060000e-01  -1.117143094180e-01  0.0
 -1.600000054000e-01  -1.189206614800e-01  0.0
 -1.500000060000e-01  -1.214286014000e-01  0.0
  1.832975030000e+00  -4.625000060000e-02  0.0
  1.841380024000e+00  -7.700000108000e-02  0.0
  1.849785018000e+00  -1.077500015600e-01  0.0
  1.858190012000e+00  -1.385000020400e-01  0.0
  1.866595006000e+00  -1.692500025200e-01  0.0
  1.875000000000e+00  -2.000000030000e-01  0.0
  1.866380024000e+00  -5.649999976400e-02  0.0
  1.874785018000e+00  -8.725000024400e-02  0.0
  1.883190012000e+00  -1.180000007240e-01  0.0
  1.891595006000e+00  -1.487500012040e-01  0.0
  1.900000000000e+00  -1.795000016840e-01  0.0
  1.899785018000e+00  -6.674999892800e-02  0.0
  1.908190012000e+00  -9.749999940800e-02  0.0
  1.916595006000e+00  -1.282499998880e-01  0.0
  1.925000000000e+00  -1.590000003680e-01  0.0
  1.933190012000e+00  -7.699999809200e-02  0.0
  1.941595006000e+00  -1.077499985720e-01  0.0
  1.950000000000e+00  -1.384999990520e-01  0.0
  1.966595006000e+00  -8.724999725600e-02  0.0
  1.975000000000e+00  -1.179999977360e-01  0.0
  2.000000000000e+00  -9.749999642000e-02  0.0
 -1.500000060000e-01  -1.700000018000e-01  0.0
 -1.444000050800e-01  -1.630000025200e-01  0.0
 -1.388000041600e-01  -1.560000032400e-01  0.0
 -1.332000032400e-01  -1.490000039600e-01  0.0
 -1.276000023200e-01  -1.420000046800e-01  0.0
 -1.220000014000e-01  -1.350000054000e-01  0.0
 -1.500000060000e-01  -1.602857217200e-01  0.0
 -1.444000050800e-01  -1.532857224400e-01  0.0
 -1.388000041600e-01  -1.462857231600e-01  0.0
 -1.332000032400e-01  -1.392857238800e-01  0.0
 -1.276000023200e-01  -1.322857246000e-01  0.0
 -1.500000060000e-01  -1.505714416400e-01  0.0
 -1.444000050800e-01  -1.435714423600e-01  0.0
 -1.388000041600e-01  -1.365714430800e-01  0.0
 -1.332000032400e-01  -1.295714438000e-01  0.0
 -1.500000060000e-01  -1.408571615600e-01  0.0
 -1.444000050800e-01  -1.338571622800e-01  0.0
 -1.388000041600e-01  -1.268571630000e-01  0.0
 -1.500000060000e-01  -1.311428814800e-01  0.0
 -1.444000050800e-01  -1.241428822000e-01  0.0
 -1.500000060000e-01  -1.214286014000e-01  0.0
  2.849999964000e-01  -2.333333530000e-02  0.0
  2.844999968800e-01  -4.666666836000e-02  0.0
  2.839999973600e-01  -7.000000142000e-02  0.0
  2.834999978400e-01  -9.333333448000e-02  0.0
  2.829999983200e-01  -1.166666675400e-01  0.0
  2.824999988000e-01  -1.400000006000e-01  0.0
  2.979999959200e-01  -3.266666830000e-02  0.0
  2.974999964000e-01  -5.600000136000e-02  0.0
  2.969999968800e-01  -7.933333442000e-02  0.0
  2.964999973600e-01  -1.026666674800e-01  0.0
  2.959999978400e-01  -1.260000005400e-01  0.0
  3.109999954400e-01  -4.200000130000e-02  0.0
  3.104999959200e-01  -6.533333436000e-02  0.0
  3.099999964000e-01  -8.866666742000e-02  0.0
  3.094999968800e-01  -1.120000004800e-01  0.0
  3.239999949600e-01  -5.133333430000e-02  0.0
  3.234999954400e-01  -7.466666736000e-02  0.0
  3.229999959200e-01  -9.800000042000e-02  0.0
  3.369999944800e-01  -6.066666730000e-02  0.0
  3.364999949600e-01  -8.400000036000e-02  0.0
  3.499999940000e-01  -7.000000030000e-02  0.0
 -1.071429029000e-01  -1.700000018000e-01  0.0
 -9.857146590000e-02  -1.700000018000e-01  0.0
 -9.000002890000e-02  -1.700000018000e-01  0.0
 -8.142859190000e-02  -1.700000018000e-01  0.0
 -7.285715490000e-02  -1.700000018000e-01  0.0
 -6.428571790000e-02  -1.700000018000e-01  0.0
 -1.037143230360e-01  -1.630000025200e-01  0.0
 -9.514288603600e-02  -1.630000025200e-01  0.0
 -8.657144903600e-02  -1.630000025200e-01  0.0
 -7.800001203600e-02  -1.630000025200e-01  0.0
 -6.942857503600e-02  -1.630000025200e-01  0.0
 -1.002857431720e-01  -1.560000032400e-01  0.0
 -9.171430617200e-02  -1.560000032400e-01  0.0
 -8.314286917200e-02  -1.560000032400e-01  0.0
 -7.457143217200e-02  -1.560000032400e-01  0.0
 -9.685716330800e-02  -1.490000039600e-01  0.0
 -8.828572630800e-02  -1.490000039600e-01  0.0
 -7.971428930800e-02  -1.490000039600e-01  0.0
 -9.342858344400e-02  -1.420000046800e-01  0.0
 -8.485714644400e-02  -1.420000046800e-01  0.0
 -9.000000358000e-02  -1.350000054000e-01  0.0
 -1.312499940000e-01  -2.000000030000e-01  0.0
 -1.264285757800e-01  -1.940000027600e-01  0.0
 -1.216071575600e-01  -1.880000025200e-01  0.0
 -1.167857393400e-01  -1.820000022800e-01  0.0
 -1.119643211200e-01  -1.760000020400e-01  0.0
 -1.071429029000e-01  -1.700000018000e-01  0.0
 -1.349999964000e-01  -1.940000027600e-01  0.0
 -1.301785781800e-01  -1.880000025200e-01  0.0
 -1.253571599600e-01  -1.820000022800e-01  0.0
 -1.205357417400e-01  -1.760000020400e-01  0.0
 -1.157143235200e-01  -1.700000018000e-01  0.0
 -1.387499988000e-01  -1.880000025200e-01  0.0
 -1.339285805800e-01  -1.820000022800e-01  0.0
 -1.291071623600e-01  -1.760000020400e-01  0.0
 -1.242857441400e-01  -1.700000018000e-01  0.0
 -1.425000012000e-01  -1.820000022800e-01  0.0
 -1.376785829800e-01  -1.760000020400e-01  0.0
 -1.328571647600e-01  -1.700000018000e-01  0.0
 -1.462500036000e-01  -1.760000020400e-01  0.0
 -1.414285853800e-01  -1.700000018000e-01  0.0
 -1.500000060000e-01  -1.700000018000e-01  0.0
[...]
POINT_DATA 7854
SCALARS field1 double 1
LOOKUP_TABLE default
 -1.208237713169e-06 
  1.202202299003e-02 
  1.386946570843e-02 
  1.413301677340e-02 
  1.557079779719e-02 
  1.828331555617e-02 
 -3.880917509213e-06 
  9.955644183717e-03 
  1.136850628648e-02 
  1.233624502811e-02 
  1.498552297521e-02 
  1.619922201009e-06 
  7.539242148547e-03 
  9.052863151793e-03 
  1.151909825874e-02 
  1.044265060244e-05 
  5.193759209052e-03 
  7.865805662885e-03 
 -2.653430264140e-06 
  4.017645162267e-03 
  3.206029777362e-06 
  3.509837361763e-02 
  3.403600873531e-02 
  3.207949499933e-02 
  2.778581620643e-02 
  1.843652622601e-02 
 -8.797251292136e-07 
  3.463581762324e-02 
  3.268818489710e-02 
  2.836364963160e-02 
  1.885151311476e-02 
 -2.928566122194e-07 
  3.325741119464e-02 
  2.890240920192e-02 
  1.924360334241e-02 
 -3.390408716855e-07 
  2.940555636571e-02 
  1.961033125319e-02 
 -3.289678551369e-07 
  1.995036308606e-02 
 -2.092456038012e-07 
 -4.564555337863e-07 
  1.828152176000e-02 
  2.111363603965e-02 
  2.405925327049e-02 
  2.652674764084e-02 
  2.849248425001e-02 
  3.008927637999e-02 
  2.138729242655e-02 
  2.386654801211e-02 
  2.631532393860e-02 
  2.835049081681e-02 
  2.997632729730e-02 
  2.431311332674e-02 
  2.647545189733e-02 
  2.846870660340e-02 
  3.009933045551e-02 
  2.705418961396e-02 
  2.892483403704e-02 
  3.050511541370e-02 
  2.961317131463e-02 
  3.121320533162e-02 
  3.199011636820e-02 
  3.008929809208e-02 
  2.849245815645e-02 
  2.652640329651e-02 
  2.405919815903e-02 
  2.111396011941e-02 
  1.828302187488e-02 
  2.880028627107e-02 
  2.689405368886e-02 
  2.453675294530e-02 
  2.156924254846e-02 
  1.807052227323e-02 
  2.750763724755e-02 
  2.530593559550e-02 
  2.254658276692e-02 
  1.906398649980e-02 
  2.626506271040e-02 
  2.377803168967e-02 
  2.062669885140e-02 
  2.512613112674e-02 
  2.236775612779e-02 
  2.408348127872e-02 
  3.509841576358e-02 
  3.513530159120e-02 
  3.492392019146e-02 
  3.439192041411e-02 
  3.345448932374e-02 
  3.199145188147e-02 
  3.432394728438e-02 
  3.403852743327e-02 
  3.346011995525e-02 
  3.253139631827e-02 
  3.121262265012e-02 
  3.343563230809e-02 
  3.281795843408e-02 
  3.185152317477e-02 
  3.050472982598e-02 
  3.243688300763e-02 
  3.146609209969e-02 
  3.009905766736e-02 
  3.131791252563e-02 
  2.997638708704e-02 
  3.008868968385e-02 
  3.573365595114e-02 
  3.019544000066e-02 
  3.093617025703e-02 
  3.048522931370e-02 
  3.349728466639e-02 
  6.266655630838e-04 
  3.171339874800e-02 
  3.196186468403e-02 
  3.109907107958e-02 
  3.094768099625e-02 
  3.002569561853e-02 
  3.165751531893e-02 
  3.188615450587e-02 
  3.086750536528e-02 
  3.135378418846e-02 
  3.149809830092e-02 
  3.141910345540e-02 
  3.055631558453e-02 
  3.200266304020e-02 
  3.027961306874e-02 
  3.281052016782e-02 
  2.408335609921e-02 
  2.579559812202e-02 
  2.729979415397e-02 
  2.863704065723e-02 
  2.983555168375e-02 
  3.090099547603e-02 
  2.512540900764e-02 
  2.675617093939e-02 
  2.820004010942e-02 
  2.947648906321e-02 
  3.059768323062e-02 
  2.626530362584e-02 
  2.781971500918e-02 
  2.917511035227e-02 
  3.035331274342e-02 
  2.750792381558e-02 
  2.894371727286e-02 
  3.017882348463e-02 
  2.879979893256e-02 
  3.008425755357e-02 
  3.008941457997e-02 
  3.214994528237e-02 
  3.141401071771e-02 
  3.175684439454e-02 
  3.187746742263e-02 
  3.183987494662e-02 
  3.332445455739e-02 
  3.164483819212e-02 
  3.159124953789e-02 
  3.180658415987e-02 
  3.180997753021e-02 
  3.196548313508e-02 
  3.164544107627e-02 
  3.175321982667e-02 
  3.181349956364e-02 
  3.179412477046e-02 
  3.184466590191e-02 
  3.181749588821e-02 
  3.178155830001e-02 
  3.182171452782e-02 
  3.191496265513e-02 
  3.141220686565e-02 
  3.068140502172e-02 
  3.169627710429e-02 
  3.263661660385e-02 
  3.351745515695e-02 
  3.433844283899e-02 
  3.510138142000e-02 
  3.140302349654e-02 
  3.235890343835e-02 
  3.326058691940e-02 
  3.411035797500e-02 
  3.490836410708e-02 
  3.204738758743e-02 
  3.295373986063e-02 
  3.381978946072e-02 
  3.464839910363e-02 
  3.267728744117e-02 
  3.354189473251e-02 
  3.438453747052e-02 
  3.329125205523e-02 
  3.412801025987e-02 
  3.389218078614e-02 
 -1.377797223819e-06 
  1.569982632860e-02 
  2.383233033432e-02 
  2.770696399822e-02 
  2.958584911689e-02 
  3.068160379864e-02 
  1.485682025703e-02 
  2.267695092412e-02 
  2.649964683125e-02 
  2.842041893155e-02 
  2.960186588300e-02 
  2.137578944962e-02 
  2.515523698808e-02 
  2.714242640206e-02 
  2.841857726270e-02 
  2.364045196280e-02 
  2.572163997583e-02 
  2.712142897476e-02 
  2.412525130235e-02 
  2.568643572707e-02 
  2.408202001346e-02 
  3.090178581625e-02 
  3.149408018417e-02 
  3.208542250227e-02 
  3.268147218190e-02 
  3.328137928625e-02 
  3.389166687879e-02 
  3.149537740027e-02 
  3.201892532434e-02 
  3.255627480563e-02 
  3.311009030032e-02 
  3.368096699431e-02 
  3.203787720755e-02 
  3.249895760908e-02 
  3.298577946645e-02 
  3.350206046646e-02 
  3.252131369681e-02 
  3.292184723597e-02 
  3.336188769768e-02 
  3.293239628747e-02 
  3.327433750790e-02 
  3.324985254890e-02 
  3.389147693026e-02 
  3.328150313353e-02 
  3.268146531828e-02 
  3.208543510299e-02 
  3.149412696694e-02 
  3.090194586728e-02 
  3.329151526407e-02 
  3.266261340482e-02 
  3.202732204566e-02 
  3.138454467972e-02 
  3.072980843365e-02 
  3.267704358195e-02 
  3.201354560805e-02 
  3.133303749801e-02 
  3.063312088835e-02 
  3.204749068556e-02 
  3.134270747263e-02 
  3.060979114637e-02 
  3.140304850058e-02 
  3.064932326804e-02 
  3.068204479371e-02 
  3.583996817486e-02 
  3.511614226314e-02 
  3.452664340611e-02 
  3.403670557985e-02 
  3.362053304800e-02 
  3.324997999965e-02 
  3.565728834259e-02 
  3.494158828593e-02 
  3.432149639597e-02 
  3.377211860503e-02 
  3.327426173879e-02 
  3.533445939327e-02 
  3.461994532831e-02 
  3.396828064345e-02 
  3.336190273155e-02 
  3.491243138222e-02 
  3.418994548294e-02 
  3.350207759725e-02 
  3.442245299976e-02 
  3.368089391929e-02 
  3.389215689446e-02 
  3.090160575002e-02 
  3.149544793202e-02 
  3.203784159858e-02 
  3.252134558520e-02 
  3.293256565856e-02 
  3.324949955624e-02 
  3.059766238754e-02 
  3.125022989000e-02 
  3.184286023763e-02 
  3.236704413992e-02 
  3.280993053890e-02 
  3.035332042122e-02 
  3.107028740849e-02 
  3.172051470856e-02 
  3.229272667273e-02 
  3.017845677770e-02 
  3.096757478894e-02 
  3.168223729488e-02 
  3.008424277625e-02 
  3.095429173700e-02 
  3.008904957845e-02 
  3.583959063067e-02 
  3.565728061909e-02 
  3.533440847115e-02 
  3.491246128812e-02 
  3.442229689773e-02 
  3.389301578694e-02 
  3.643135610482e-02 
  3.612071968534e-02 
  3.570950508568e-02 
  3.523377262049e-02 
  3.471599213956e-02 
  3.700147991794e-02 
  3.656725303539e-02 
  3.607473781394e-02 
  3.555188768891e-02 
  3.752703969247e-02 
  3.698206614393e-02 
  3.642006017965e-02 
  3.799535590921e-02 
  3.735488629808e-02 
  3.839119898988e-02 
  3.068200023677e-02 
  3.064961017634e-02 
  3.061002928279e-02 
  3.063320182842e-02 
  3.072962046623e-02 
  3.090176149484e-02 
  2.960211632218e-02 
  2.957925462723e-02 
  2.957653780927e-02 
  2.965941596822e-02 
  2.983556200920e-02 
  2.841870300538e-02 
  2.842572044607e-02 
  2.847673941047e-02 
  2.863721408198e-02 
  2.712169670100e-02 
  2.717103402298e-02 
  2.729930362115e-02 
  2.568648041037e-02 
  2.579550909934e-02 
  2.408279438915e-02 
 -2.489950071482e-07 
 -3.341062087111e-07 
 -2.605121722701e-07 
 -3.886143485806e-07 
 -3.171669089411e-07 
 -1.135952282599e-06 
  2.178316340883e-02 
  2.173330097725e-02 
  2.158071351458e-02 
  2.134465734721e-02 
  2.105318916541e-02 
  3.213424311287e-02 
  3.203829212277e-02 
  3.178674909687e-02 
  3.141744361860e-02 
  3.638147853018e-02 
  3.622805831239e-02 
  3.590998325731e-02 
  3.791185218714e-02 
  3.769348992105e-02 
  3.842961460414e-02 
  3.509678447187e-02 
  3.432304215656e-02 
  3.343537500755e-02 
  3.243714254923e-02 
  3.131791757814e-02 
  3.008893743099e-02 
  3.430803006702e-02 
  3.363657451082e-02 
  3.285771001054e-02 
  3.196256656689e-02 
  3.095426337306e-02 
  3.374685673007e-02 
  3.317231492942e-02 
  3.248095124343e-02 
  3.168229998915e-02 
  3.339212909704e-02 
  3.290038211156e-02 
  3.229281119704e-02 
  3.323556187806e-02 
  3.280996161987e-02 
  3.324911842398e-02 
  4.113179052313e-02 
  4.016686004568e-02 
  3.866592939342e-02 
  3.724670151770e-02 
  3.605490060167e-02 
  3.509857642941e-02 
  4.147771054164e-02 
  3.984766639993e-02 
  3.825654595436e-02 
  3.689416864489e-02 
  3.573384601494e-02 
  4.085076580798e-02 
  3.910174951007e-02 
  3.756033340830e-02 
  3.622335726710e-02 
  3.980141636709e-02 
  3.809582881291e-02 
  3.658381692050e-02 
  3.852353231983e-02 
  3.685980808829e-02 
  3.709577977845e-02 
  4.113016793679e-02 
  3.966758044399e-02 
  3.802234271311e-02 
  3.619526585958e-02 
  3.418457819481e-02 
  3.199031327072e-02 
  4.016731483302e-02 
  3.874942247193e-02 
  3.715326818810e-02 
  3.539101418341e-02 
  3.345427403739e-02 
  3.866581227966e-02 
  3.739016897454e-02 
  3.596229395497e-02 
  3.439136900012e-02 
  3.724690785163e-02 
  3.615408599077e-02 
  3.492477160668e-02 
  3.605412892932e-02 
  3.513494928101e-02 
  3.510084293806e-02 
  4.113051641717e-02 
  4.147753533347e-02 
  4.085002936786e-02 
  3.980176361386e-02 
  3.852315501473e-02 
  3.709788559835e-02 
  4.241035597722e-02 
  4.253174070849e-02 
  4.162010761856e-02 
  4.032422077164e-02 
  3.884624791808e-02 
  4.350668607794e-02 
  4.341220993872e-02 
  4.225096916438e-02 
  4.073275530598e-02 
  4.442020017189e-02 
  4.412777346146e-02 
  4.274119860215e-02 
  4.515219992888e-02 
  4.466622856540e-02 
  4.569932161047e-02 
  3.709380314504e-02 
  3.685889435262e-02 
  3.658312841272e-02 
  3.622348018026e-02 
  3.573392757968e-02 
  3.509597341337e-02 
  3.561110251356e-02 
  3.552410312785e-02 
  3.540363010093e-02 
  3.520846930253e-02 
  3.488886918613e-02 
  3.421646795692e-02 
  3.430274509754e-02 
  3.436283781114e-02 
  3.435068938834e-02 
  3.288386770143e-02 
  3.318665283709e-02 
  3.346736454491e-02 
  3.161490995774e-02 
  3.219144770884e-02 
  3.041770443204e-02 
  2.940401647712e-02 
  3.120423366248e-02 
  3.285648305931e-02 
  3.437814861781e-02 
  3.578120155993e-02 
  3.709294634197e-02 
  2.928456160685e-02 
  3.115236750732e-02 
  3.280618648123e-02 
  3.428417877627e-02 
  3.561112580585e-02 
  2.934178135608e-02 
  3.121208006749e-02 
  3.281870003965e-02 
  3.421622866782e-02 
  2.956476850417e-02 
  3.137177583402e-02 
  3.288416369003e-02 
  2.993310548089e-02 
  3.161482905928e-02 
  3.041863457964e-02 
  3.709560937877e-02 
  3.723816289262e-02 
  3.734126212051e-02 
  3.739514228266e-02 
  3.741996167225e-02 
  3.743361501847e-02 
  3.884678358869e-02 
  3.909198006398e-02 
  3.923197711940e-02 
  3.929169302558e-02 
  3.927146044035e-02 
  4.073236445541e-02 
  4.103283954705e-02 
  4.120752410906e-02 
  4.126203786876e-02 
  4.274188350874e-02 
  4.309647895911e-02 
  4.328770639411e-02 
  4.466585672404e-02 
  4.505128765910e-02 
  4.570090807374e-02 
  3.509449141424e-02 
  3.447543638814e-02 
  3.393027113387e-02 
  3.347611296908e-02 
  3.313425528544e-02 
  3.297552833376e-02 
  3.488918448685e-02 
  3.412860601801e-02 
  3.344230292904e-02 
  3.283918208862e-02 
  3.235963438237e-02 
  3.435038856147e-02 
  3.343506715899e-02 
  3.256780802805e-02 
  3.176228528093e-02 
  3.346739698389e-02 
  3.234414592687e-02 
  3.121561915510e-02 
  3.219133372293e-02 
  3.075902280187e-02 
  3.041879469835e-02 
  3.333332111592e-02 
  3.205367201121e-02 
  3.168892930601e-02 
  3.172549076515e-02 
  3.221426497281e-02 
  3.325675788870e-02 
  3.169767953626e-02 
  3.188027256244e-02 
  3.189699790800e-02 
  3.213450500000e-02 
  3.248532950485e-02 
  3.168378327877e-02 
  3.147652638123e-02 
  3.136662309726e-02 
  3.089413233982e-02 
  3.158501167070e-02 
  3.180229584558e-02 
  3.139724225017e-02 
  2.752879675992e-02 
  3.102565548208e-02 
  3.021360563862e-04 
  2.887113275476e-02 
  3.022166045377e-02 
  3.121765616911e-02 
  3.197426847322e-02 
  3.254514026069e-02 
  3.297878607529e-02 
  3.029436840188e-02 
  3.132191600789e-02 
  3.207513241423e-02 
  3.264016239283e-02 
  3.305220943885e-02 
  3.181637101921e-02 
  3.249969241175e-02 
  3.299002917456e-02 
  3.334849665446e-02 
  3.338784399264e-02 
  3.371688555379e-02 
  3.393434835474e-02 
  3.495473992168e-02 
  3.493349223406e-02 
  3.646546186350e-02 
  3.297520487144e-02 
  3.313429891463e-02 
  3.347602720616e-02 
  3.393041500855e-02 
  3.447537817001e-02 
  3.509495308860e-02 
  3.344391507504e-02 
  3.346056113660e-02 
  3.364050067946e-02 
  3.393242858970e-02 
  3.430805784000e-02 
  3.367852036774e-02 
  3.357088714075e-02 
  3.360897689721e-02 
  3.374632656785e-02 
  3.370681741479e-02 
  3.349025969761e-02 
  3.339236001559e-02 
  3.355958506215e-02 
  3.323538446254e-02 
  3.324976342759e-02 
  1.246920213313e-02 
  1.517840412600e-02 
  1.750205866185e-02 
  1.949910887921e-02 
  2.123203221260e-02 
  2.276235232402e-02 
  1.358494078997e-02 
  1.617804687998e-02 
  1.838497788414e-02 
  2.027109532953e-02 
  2.189251969654e-02 
  1.499667006202e-02 
  1.747777875367e-02 
  1.952248270375e-02 
  2.125161919226e-02 
  1.673970286390e-02 
  1.904911498234e-02 
  2.088939448540e-02 
  1.880593074602e-02 
  2.086398377925e-02 
  2.113164563401e-02 
  2.276038680733e-02 
  2.484644480956e-02 
  2.658808556747e-02 
  2.805579992277e-02 
  2.931776506906e-02 
  3.042091046536e-02 
  2.357516757552e-02 
  2.550043316656e-02 
  2.709439073369e-02 
  2.844235369121e-02 
  2.959907204975e-02 
  2.465108007536e-02 
  2.633750237026e-02 
  2.774148230741e-02 
  2.893731611032e-02 
  2.593486072332e-02 
  2.733172528683e-02 
  2.850802636526e-02 
  2.736130488077e-02 
  2.844230154285e-02 
  2.887241353786e-02 
  2.886963722020e-02 
  2.798562880268e-02 
  2.687030680344e-02 
  2.547412325620e-02 
  2.363703562187e-02 
  2.113217186821e-02 
  2.736056906150e-02 
  2.620594149445e-02 
  2.480655856665e-02 
  2.307119926270e-02 
  2.086401373216e-02 
  2.593476447708e-02 
  2.455347396890e-02 
  2.289797302505e-02 
  2.088926409198e-02 
  2.465075799601e-02 
  2.309558827150e-02 
  2.125142116440e-02 
  2.357453775816e-02 
  2.189265970047e-02 
  2.276211485792e-02 
  2.275996997014e-02 
  2.364365114959e-02 
  2.492261484844e-02 
  2.638458763728e-02 
  2.790499485007e-02 
  2.940473443642e-02 
  2.484666819773e-02 
  2.560700316509e-02 
  2.668959945681e-02 
  2.795046724663e-02 
  2.928445703046e-02 
  2.658823569714e-02 
  2.726437464451e-02 
  2.822107661143e-02 
  2.934156702050e-02 
  2.805557987255e-02 
  2.869038653328e-02 
  2.956478892785e-02 
  2.931795440435e-02 
  2.993335617175e-02 
  3.041954002113e-02 
  3.583967528205e-02 
  3.612846490085e-02 
  3.635871709101e-02 
  3.651893077641e-02 
  3.657980384813e-02 
  3.646614238049e-02 
  3.530657078487e-02 
  3.542058511502e-02 
  3.542337672545e-02 
  3.527858636793e-02 
  3.493338200713e-02 
  3.472673244345e-02 
  3.464818374165e-02 
  3.440281437739e-02 
  3.393453424829e-02 
  3.412606083045e-02 
  3.384685791740e-02 
  3.334834477353e-02 
  3.353109808822e-02 
  3.305229473653e-02 
  3.297826132470e-02 
  2.887354878978e-02 
  2.844202632430e-02 
  2.850829881562e-02 
  2.893718676986e-02 
  2.959921290373e-02 
  3.042033992817e-02 
  3.022135499644e-02 
  2.982721116319e-02 
  2.986005619686e-02 
  3.019886603349e-02 
  3.075963108982e-02 
  3.121798983720e-02 
  3.089709387887e-02 
  3.092300836019e-02 
  3.121626451469e-02 
  3.197415080136e-02 
  3.172305539187e-02 
  3.176294170427e-02 
  3.254535347494e-02 
  3.235998764802e-02 
  3.297715618435e-02 
  3.584034269918e-02 
  3.530631430544e-02 
  3.472651408032e-02 
  3.412562208010e-02 
  3.353077673619e-02 
  3.297630308209e-02 
  3.511610632718e-02 
  3.470066002528e-02 
  3.426998771450e-02 
  3.384330528335e-02 
  3.344378131180e-02 
  3.452676565303e-02 
  3.423047526908e-02 
  3.394292193310e-02 
  3.367870314979e-02 
  3.403661626433e-02 
  3.385909840515e-02 
  3.370683601564e-02 
  3.362065888777e-02 
  3.355994573640e-02 
  3.324957047567e-02 
  2.276109850201e-02 
  2.123241246448e-02 
  1.949896853196e-02 
  1.750175497122e-02 
  1.517846703074e-02 
  1.246991018938e-02 
  2.173293137628e-02 
  2.006971844866e-02 
  1.816710388640e-02 
  1.598272175277e-02 
  1.347982036273e-02 
  2.095812232644e-02 
  1.919943415568e-02 
  1.719902272764e-02 
  1.491917314001e-02 
  2.046482010944e-02 
  1.867364761354e-02 
  1.665501934460e-02 
  2.027353894500e-02 
  1.851554561448e-02 
  2.037619423627e-02 
  3.839183461605e-02 
  3.735482246475e-02 
  3.642026295946e-02 
  3.555175598185e-02 
  3.471610382833e-02 
  3.389260621873e-02 
  3.760664335757e-02 
  3.668123527611e-02 
  3.580875400884e-02 
  3.496425329062e-02 
  3.412832872938e-02 
  3.687836601724e-02 
  3.602989817072e-02 
  3.520366430406e-02 
  3.438454716238e-02 
  3.622617630856e-02 
  3.543963466342e-02 
  3.464870874296e-02 
  3.566794332666e-02 
  3.490850240029e-02 
  3.510360392424e-02 
  3.564806383153e-02 
  3.163910158238e-02 
  3.161636329595e-02 
  3.148469832090e-02 
  3.193436466381e-02 
  3.295533450958e-02 
  3.201449230065e-02 
  3.144207309872e-02 
  3.155131590659e-02 
  3.154820793110e-02 
  3.220116612744e-02 
  3.142250510235e-02 
  3.165856579270e-02 
  3.157573995045e-02 
  3.198072930230e-02 
  3.140009135513e-02 
  3.139065133204e-02 
  3.248153169555e-02 
  3.191831888559e-02 
  3.282070469756e-02 
  3.272024627044e-02 
  4.023173851400e-02 
  3.957886707844e-02 
  3.903080581190e-02 
  3.858513184916e-02 
  3.823578084152e-02 
  3.787791522974e-02 
  4.055131366331e-02 
  3.984524220042e-02 
  3.925924324920e-02 
  3.879283302366e-02 
  3.842559975960e-02 
  4.079448170068e-02 
  4.004308782662e-02 
  3.943163764795e-02 
  3.894932263148e-02 
  4.095174874974e-02 
  4.017066758454e-02 
  3.954541857365e-02 
  4.102348109875e-02 
  4.022842603623e-02 
  4.100844450081e-02 
  4.023123253118e-02 
  4.001285464266e-02 
  3.971611994304e-02 
  3.934206019788e-02 
  3.889592133983e-02 
  3.839087337342e-02 
  3.896585051095e-02 
  3.870545484113e-02 
  3.838895988193e-02 
  3.802123274901e-02 
  3.760669429201e-02 
  3.787788448700e-02 
  3.758064245336e-02 
  3.724626960812e-02 
  3.687817233796e-02 
  3.691576920005e-02 
  3.658610806677e-02 
  3.622624188481e-02 
  3.602786028921e-02 
  3.566769299940e-02 
  3.510446671788e-02 
  3.583914721241e-02 
  3.667928490463e-02 
  3.773667732110e-02 
  3.910870357108e-02 
  4.090913223186e-02 
  4.327403478946e-02 
  3.612830530405e-02 
  3.705532429628e-02 
  3.827865517700e-02 
  3.992628406979e-02 
  4.213509855500e-02 
  3.635841117218e-02 
  3.740765196065e-02 
  3.885532235527e-02 
  4.085815839879e-02 
  3.651876587133e-02 
  3.772870842525e-02 
  3.946338673930e-02 
  3.657986265769e-02 
  3.798530839213e-02 
  3.646505753898e-02 
  4.327414899482e-02 
  4.090920712278e-02 
  3.910877496218e-02 
  3.773674440990e-02 
  3.667935146609e-02 
  3.583910334154e-02 
  4.202658222538e-02 
  4.011486976290e-02 
  3.860678235524e-02 
  3.740750974067e-02 
  3.643100514878e-02 
  4.094220831788e-02 
  3.936633668151e-02 
  3.807487675361e-02 
  3.700106184700e-02 
  3.999262010113e-02 
  3.866137439131e-02 
  3.752650021942e-02 
  3.915003812694e-02 
  3.799470383610e-02 
  3.838999264478e-02 
  4.777263467374e-02 
  4.722837226199e-02 
  4.649436571713e-02 
  4.557747374476e-02 
  4.449263065781e-02 
  4.327619719625e-02 
  4.505023410451e-02 
  4.447574722170e-02 
  4.376624427401e-02 
  4.294117248148e-02 
  4.202639116182e-02 
  4.284672345510e-02 
  4.228983206515e-02 
  4.164987792479e-02 
  4.094252417901e-02 
  4.106884854955e-02 
  4.055628348896e-02 
  3.999237483477e-02 
  3.961616156234e-02 
  3.915003073705e-02 
  3.838881351928e-02 
  4.395550888405e-02 
  4.299916163558e-02 
  4.124940563753e-02 