# vtk DataFile Version 2
NuDG++ 2D simulation
ASCII
DATASET UNSTRUCTURED_GRID

POINTS 7854 double
 -1.656250060000e-01  -2.000000030000e-01  0.0
 -1.725000054000e-01  -1.908888817000e-01  0.0
 -1.793750048000e-01  -1.817777604000e-01  0.0
 -1.862500042000e-01  -1.726666391000e-01  0.0
 -1.931250036000e-01  -1.635555178000e-01  0.0
 -2.000000030000e-01  -1.544443965000e-01  0.0
 -1.725000054000e-01  -2.000000030000e-01  0.0
 -1.793750048000e-01  -1.908888817000e-01  0.0
 -1.862500042000e-01  -1.817777604000e-01  0.0
 -1.931250036000e-01  -1.726666391000e-01  0.0
 -2.000000030000e-01  -1.635555178000e-01  0.0
 -1.793750048000e-01  -2.000000030000e-01  0.0
 -1.862500042000e-01  -1.908888817000e-01  0.0
 -1.931250036000e-01  -1.817777604000e-01  0.0
 -2.000000030000e-01  -1.726666391000e-01  0.0
 -1.862500042000e-01  -2.000000030000e-01  0.0
 -1.931250036000e-01  -1.908888817000e-01  0.0
 -2.000000030000e-01  -1.817777604000e-01  0.0
 -1.931250036000e-01  -2.000000030000e-01  0.0
 -2.000000030000e-01  -1.908888817000e-01  0.0
 -2.000000030000e-01  -2.000000030000e-01  0.0
 -6.428571790000e-02  -1.700000018000e-01  0.0
 -7.080357372400e-02  -1.760000020400e-01  0.0
 -7.732142954800e-02  -1.820000022800e-01  0.0
 -8.383928537200e-02  -1.880000025200e-01  0.0
 -9.035714119600e-02  -1.940000027600e-01  0.0
 -9.687499702000e-02  -2.000000030000e-01  0.0
 -6.392857432000e-02  -1.760000020400e-01  0.0
 -7.044643014400e-02  -1.820000022800e-01  0.0
 -7.696428596800e-02  -1.880000025200e-01  0.0
 -8.348214179200e-02  -1.940000027600e-01  0.0
 -8.999999761600e-02  -2.000000030000e-01  0.0
 -6.357143074000e-02  -1.820000022800e-01  0.0
 -7.008928656400e-02  -1.880000025200e-01  0.0
 -7.660714238800e-02  -1.940000027600e-01  0.0
 -8.312499821200e-02  -2.000000030000e-01  0.0
 -6.321428716000e-02  -1.880000025200e-01  0.0
 -6.973214298400e-02  -1.940000027600e-01  0.0
 -7.624999880800e-02  -2.000000030000e-01  0.0
 -6.285714358000e-02  -1.940000027600e-01  0.0
 -6.937499940400e-02  -2.000000030000e-01  0.0
 -6.250000000000e-02  -2.000000030000e-01  0.0
 -2.000000030000e-01  -1.544443965000e-01  0.0
 -1.900000036000e-01  -1.478412374800e-01  0.0
 -1.800000042000e-01  -1.412380784600e-01  0.0
 -1.700000048000e-01  -1.346349194400e-01  0.0
 -1.600000054000e-01  -1.280317604200e-01  0.0
 -1.500000060000e-01  -1.214286014000e-01  0.0
 -2.000000030000e-01  -1.453332975600e-01  0.0
 -1.900000036000e-01  -1.387301385400e-01  0.0
 -1.800000042000e-01  -1.321269795200e-01  0.0
 -1.700000048000e-01  -1.255238205000e-01  0.0
 -1.600000054000e-01  -1.189206614800e-01  0.0
 -2.000000030000e-01  -1.362221986200e-01  0.0
 -1.900000036000e-01  -1.296190396000e-01  0.0
 -1.800000042000e-01  -1.230158805800e-01  0.0
 -1.700000048000e-01  -1.164127215600e-01  0.0
 -2.000000030000e-01  -1.271110996800e-01  0.0
 -1.900000036000e-01  -1.205079406600e-01  0.0
 -1.800000042000e-01  -1.139047816400e-01  0.0
 -2.000000030000e-01  -1.180000007400e-01  0.0
 -1.900000036000e-01  -1.113968417200e-01  0.0
 -2.000000030000e-01  -1.088889018000e-01  0.0
 -1.500000060000e-01  -1.214286014000e-01  0.0
 -1.600000054000e-01  -1.280317604200e-01  0.0
 -1.700000048000e-01  -1.346349194400e-01  0.0
 -1.800000042000e-01  -1.412380784600e-01  0.0
 -1.900000036000e-01  -1.478412374800e-01  0.0
 -2.000000030000e-01  -1.544443965000e-01  0.0
 -1.500000060000e-01  -1.311428814800e-01  0.0
 -1.600000054000e-01  -1.377460405000e-01  0.0
 -1.700000048000e-01  -1.443491995200e-01  0.0
 -1.800000042000e-01  -1.509523585400e-01  0.0
 -1.900000036000e-01  -1.575555175600e-01  0.0
 -1.500000060000e-01  -1.408571615600e-01  0.0
 -1.600000054000e-01  -1.474603205800e-01  0.0
 -1.700000048000e-01  -1.540634796000e-01  0.0
 -1.800000042000e-01  -1.606666386200e-01  0.0
 -1.500000060000e-01  -1.505714416400e-01  0.0
 -1.600000054000e-01  -1.571746006600e-01  0.0
 -1.700000048000e-01  -1.637777596800e-01  0.0
 -1.500000060000e-01  -1.602857217200e-01  0.0
 -1.600000054000e-01  -1.668888807400e-01  0.0
 -1.500000060000e-01  -1.700000018000e-01  0.0
 -1.500000060000e-01  -7.285714149000e-02  0.0
 -1.600000054000e-01  -8.006349355200e-02  0.0
 -1.700000048000e-01  -8.726984561400e-02  0.0
 -1.800000042000e-01  -9.447619767600e-02  0.0
 -1.900000036000e-01  -1.016825497380e-01  0.0
 -2.000000030000e-01  -1.088889018000e-01  0.0
 -1.500000060000e-01  -8.257143347200e-02  0.0
 -1.600000054000e-01  -8.977778553400e-02  0.0
 -1.700000048000e-01  -9.698413759600e-02  0.0
 -1.800000042000e-01  -1.041904896580e-01  0.0
 -1.900000036000e-01  -1.113968417200e-01  0.0
 -1.500000060000e-01  -9.228572545400e-02  0.0
 -1.600000054000e-01  -9.949207751600e-02  0.0
 -1.700000048000e-01  -1.066984295780e-01  0.0
 -1.800000042000e-01  -1.139047816400e-01  0.0
 -1.500000060000e-01  -1.020000174360e-01  0.0
 -1.600000054000e-01  -1.092063694980e-01  0.0
 -1.700000048000e-01  -1.164127215600e-01  0.0
 -1.500000060000e-01  -1.117143094180e-01  0.0
 -1.600000054000e-01  -1.189206614800e-01  0.0
 -1.500000060000e-01  -1.214286014000e-01  0.0
  1.832975030000e+00  -4.625000060000e-02  0.0
  1.841380024000e+00  -7.700000108000e-02  0.0
  1.849785018000e+00  -1.077500015600e-01  0.0
  1.858190012000e+00  -1.385000020400e-01  0.0
  1.866595006000e+00  -1.692500025200e-01  0.0
  1.875000000000e+00  -2.000000030000e-01  0.0
  1.866380024000e+00  -5.649999976400e-02  0.0
  1.874785018000e+00  -8.725000024400e-02  0.0
  1.883190012000e+00  -1.180000007240e-01  0.0
  1.891595006000e+00  -1.487500012040e-01  0.0
  1.900000000000e+00  -1.795000016840e-01  0.0
  1.899785018000e+00  -6.674999892800e-02  0.0
  1.908190012000e+00  -9.749999940800e-02  0.0
  1.916595006000e+00  -1.282499998880e-01  0.0
  1.925000000000e+00  -1.590000003680e-01  0.0
  1.933190012000e+00  -7.699999809200e-02  0.0
  1.941595006000e+00  -1.077499985720e-01  0.0
  1.950000000000e+00  -1.384999990520e-01  0.0
  1.966595006000e+00  -8.724999725600e-02  0.0
  1.975000000000e+00  -1.179999977360e-01  0.0
  2.000000000000e+00  -9.749999642000e-02  0.0
 -1.500000060000e-01  -1.700000018000e-01  0.0
 -1.444000050800e-01  -1.630000025200e-01  0.0
 -1.388000041600e-01  -1.560000032400e-01  0.0
 -1.332000032400e-01  -1.490000039600e-01  0.0
 -1.276000023200e-01  -1.420000046800e-01  0.0
 -1.220000014000e-01  -1.350000054000e-01  0.0
 -1.500000060000e-01  -1.602857217200e-01  0.0
 -1.444000050800e-01  -1.532857224400e-01  0.0
 -1.388000041600e-01  -1.462857231600e-01  0.0
 -1.332000032400e-01  -1.392857238800e-01  0.0
 -1.276000023200e-01  -1.322857246000e-01  0.0
 -1.500000060000e-01  -1.505714416400e-01  0.0
 -1.444000050800e-01  -1.435714423600e-01  0.0
 -1.388000041600e-01  -1.365714430800e-01  0.0
 -1.332000032400e-01  -1.295714438000e-01  0.0
 -1.500000060000e-01  -1.408571615600e-01  0.0
 -1.444000050800e-01  -1.338571622800e-01  0.0
 -1.388000041600e-01  -1.268571630000e-01  0.0
 -1.500000060000e-01  -1.311428814800e-01  0.0
 -1.444000050800e-01  -1.241428822000e-01  0.0
 -1.500000060000e-01  -1.214286014000e-01  0.0
  2.849999964000e-01  -2.333333530000e-02  0.0
  2.844999968800e-01  -4.666666836000e-02  0.0
  2.839999973600e-01  -7.000000142000e-02  0.0
  2.834999978400e-01  -9.333333448000e-02  0.0
  2.829999983200e-01  -1.166666675400e-01  0.0
  2.824999988000e-01  -1.400000006000e-01  0.0
  2.979999959200e-01  -3.266666830000e-02  0.0
  2.974999964000e-01  -5.600000136000e-02  0.0
  2.969999968800e-01  -7.933333442000e-02  0.0
  2.964999973600e-01  -1.026666674800e-01  0.0
  2.959999978400e-01  -1.260000005400e-01  0.0
  3.109999954400e-01  -4.200000130000e-02  0.0
  3.104999959200e-01  -6.533333436000e-02  0.0
  3.099999964000e-01  -8.866666742000e-02  0.0
  3.094999968800e-01  -1.120000004800e-01  0.0
  3.239999949600e-01  -5.133333430000e-02  0.0
  3.234999954400e-01  -7.466666736000e-02  0.0
  3.229999959200e-01  -9.800000042000e-02  0.0
  3.369999944800e-01  -6.066666730000e-02  0.0
  3.364999949600e-01  -8.400000036000e-02  0.0
  3.499999940000e-01  -7.000000030000e-02  0.0
 -1.071429029000e-01  -1.700000018000e-01  0.0
 -9.857146590000e-02  -1.700000018000e-01  0.0
 -9.000002890000e-02  -1.700000018000e-01  0.0
 -8.142859190000e-02  -1.700000018000e-01  0.0
 -7.285715490000e-02  -1.700000018000e-01  0.0
 -6.428571790000e-02  -1.700000018000e-01  0.0
 -1.037143230360e-01  -1.630000025200e-01  0.0
 -9.514288603600e-02  -1.630000025200e-01  0.0
 -8.657144903600e-02  -1.630000025200e-01  0.0
 -7.800001203600e-02  -1.630000025200e-01  0.0
 -6.942857503600e-02  -1.630000025200e-01  0.0
 -1.002857431720e-01  -1.560000032400e-01  0.0
 -9.171430617200e-02  -1.560000032400e-01  0.0
 -8.314286917200e-02  -1.560000032400e-01  0.0
 -7.457143217200e-02  -1.560000032400e-01  0.0
 -9.685716330800e-02  -1.490000039600e-01  0.0
 -8.828572630800e-02  -1.490000039600e-01  0.0
 -7.971428930800e-02  -1.490000039600e-01  0.0
 -9.342858344400e-02  -1.420000046800e-01  0.0
 -8.485714644400e-02  -1.420000046800e-01  0.0
 -9.000000358000e-02  -1.350000054000e-01  0.0
 -1.312499940000e-01  -2.000000030000e-01  0.0
 -1.264285757800e-01  -1.940000027600e-01  0.0
 -1.216071575600e-01  -1.880000025200e-01  0.0
 -1.167857393400e-01  -1.820000022800e-01  0.0
 -1.119643211200e-01  -1.760000020400e-01  0.0
 -1.071429029000e-01  -1.700000018000e-01  0.0
 -1.349999964000e-01  -1.940000027600e-01  0.0
 -1.301785781800e-01  -1.880000025200e-01  0.0
 -1.253571599600e-01  -1.820000022800e-01  0.0
 -1.205357417400e-01  -1.760000020400e-01  0.0
 -1.157143235200e-01  -1.700000018000e-01  0.0
 -1.387499988000e-01  -1.880000025200e-01  0.0
 -1.339285805800e-01  -1.820000022800e-01  0.0
 -1.291071623600e-01  -1.760000020400e-01  0.0
 -1.242857441400e-01  -1.700000018000e-01  0.0
 -1.425000012000e-01  -1.820000022800e-01  0.0
 -1.376785829800e-01  -1.760000020400e-01  0.0
 -1.328571647600e-01  -1.700000018000e-01  0.0
 -1.462500036000e-01  -1.760000020400e-01  0.0
 -1.414285853800e-01  -1.700000018000e-01  0.0
 -1.500000060000e-01  -1.700000018000e-01  0.0
[...]
POINT_DATA 7854
SCALARS field1 double 1
LOOKUP_TABLE default
  8.181836343418e-07 
  1.070282954764e-02 
  1.202489709646e-02 
  1.210802075420e-02 
  1.329058376569e-02 
  1.556859210289e-02 
 -4.072582698563e-06 
  8.890110811245e-03 
  9.854184735930e-03 
  1.053590589084e-02 
  1.275825497675e-02 
  1.230629142423e-06 
  6.719898408716e-03 
  7.791036346665e-03 
  9.808296809558e-03 
  1.208993093470e-05 
  4.542819966983e-03 
  6.698319406431e-03 
 -2.397028037123e-06 
  3.419195124222e-03 
  3.690250638751e-06 
  2.974962776975e-02 
  2.896352667242e-02 
  2.754863441517e-02 
  2.425887367287e-02 
  1.646708206018e-02 
 -1.067757038242e-06 
  2.946845053954e-02 
  2.806457255967e-02 
  2.475818320046e-02 
  1.683343133927e-02 
 -3.514653014526e-07 
  2.854744204537e-02 
  2.522292599811e-02 
  1.717984107442e-02 
 -4.042979827216e-07 
  2.565710352627e-02 
  1.750371000811e-02 
 -3.956737213840e-07 
  1.780375137525e-02 
 -2.673758499699e-07 
 -5.244602209901e-07 
  1.556474792290e-02 
  1.800330245638e-02 
  2.050808004046e-02 
  2.257939334084e-02 
  2.422827253165e-02 
  2.557290998834e-02 
  1.820812082057e-02 
  2.033406305191e-02 
  2.241582021672e-02 
  2.412275569404e-02 
  2.549377725409e-02 
  2.069986557067e-02 
  2.254810001209e-02 
  2.423135047386e-02 
  2.560454912623e-02 
  2.303356628974e-02 
  2.462248163196e-02 
  2.595218672492e-02 
  2.521269351640e-02 
  2.656416861641e-02 
  2.723568557891e-02 
  2.557349106520e-02 
  2.422823794600e-02 
  2.257955605772e-02 
  2.050769448574e-02 
  1.800406983721e-02 
  1.556589195529e-02 
  2.447251480482e-02 
  2.287915049547e-02 
  2.090612927053e-02 
  1.840455291810e-02 
  1.542425381186e-02 
  2.338335429311e-02 
  2.154191828382e-02 
  1.922677837708e-02 
  1.629521006807e-02 
  2.233604689319e-02 
  2.024924985413e-02 
  1.760654287028e-02 
  2.137239906417e-02 
  1.906224953212e-02 
  2.051406767106e-02 
  2.982347649849e-02 
  2.984492442872e-02 
  2.967662947956e-02 
  2.924150582296e-02 
  2.846704502530e-02 
  2.723712623594e-02 
  2.915015248986e-02 
  2.892095067163e-02 
  2.844388400183e-02 
  2.766854724022e-02 
  2.656353174708e-02 
  2.840417256915e-02 
  2.789543503055e-02 
  2.708460802274e-02 
  2.595207832005e-02 
  2.757129673690e-02 
  2.675670975071e-02 
  2.560402782023e-02 
  2.662810251845e-02 
  2.549359236481e-02 
  2.557285368570e-02 
  3.034797235264e-02 
  2.572669350433e-02 
  2.639187276504e-02 
  2.571569638533e-02 
  2.849874007140e-02 
  7.012410783134e-04 
  2.689746828514e-02 
  2.713943945264e-02 
  2.638373979660e-02 
  2.612618580079e-02 
  2.572829276530e-02 
  2.688511331060e-02 
  2.704560534489e-02 
  2.616798415622e-02 
  2.650091795932e-02 
  2.672465520875e-02 
  2.666349309798e-02 
  2.596204243688e-02 
  2.718989262797e-02 
  2.566485619791e-02 
  2.798219446805e-02 
  2.051359351720e-02 
  2.193088125795e-02 
  2.319428756748e-02 
  2.431885704160e-02 
  2.532877020286e-02 
  2.623385792730e-02 
  2.137196635418e-02 
  2.274337991596e-02 
  2.395745751321e-02 
  2.503395691917e-02 
  2.598018417847e-02 
  2.233649826500e-02 
  2.364290650877e-02 
  2.478429904133e-02 
  2.578071892779e-02 
  2.338392232758e-02 
  2.459310489819e-02 
  2.563705954139e-02 
  2.447265120962e-02 
  2.556303151449e-02 
  2.557375366218e-02 
  2.728799054557e-02 
  2.668789673507e-02 
  2.696022115209e-02 
  2.708383501975e-02 
  2.702361144428e-02 
  2.844340972390e-02 
  2.688691812178e-02 
  2.681749494495e-02 
  2.700747284227e-02 
  2.702054607440e-02 
  2.716070105736e-02 
  2.687404905493e-02 
  2.695485325528e-02 
  2.701306928437e-02 
  2.700604967571e-02 
  2.701004283534e-02 
  2.701377302045e-02 
  2.697407063869e-02 
  2.698276939482e-02 
  2.710933797955e-02 
  2.661996224189e-02 
  2.605086974029e-02 
  2.690165103259e-02 
  2.769017356548e-02 
  2.842844409790e-02 
  2.911612118674e-02 
  2.975294898713e-02 
  2.662724307649e-02 
  2.742739557676e-02 
  2.818146883298e-02 
  2.889254974596e-02 
  2.956002027866e-02 
  2.716561964577e-02 
  2.792355677627e-02 
  2.864718588497e-02 
  2.933992699492e-02 
  2.769704722184e-02 
  2.841947864108e-02 
  2.912334777200e-02 
  2.821540523248e-02 
  2.891428153723e-02 
  2.872301997741e-02 
 -2.420239833427e-06 
  1.404264572475e-02 
  2.083717400750e-02 
  2.382980786344e-02 
  2.521569603396e-02 
  2.605124035749e-02 
  1.329482649846e-02 
  1.983556459557e-02 
  2.280260393905e-02 
  2.423317964507e-02 
  2.514414538291e-02 
  1.870705204914e-02 
  2.165722313290e-02 
  2.315557695812e-02 
  2.415072851601e-02 
  2.036562305375e-02 
  2.195754302588e-02 
  2.306162762513e-02 
  2.061242268189e-02 
  2.185764256113e-02 
  2.051152918458e-02 
  2.623332353245e-02 
  2.672452831821e-02 
  2.721718371995e-02 
  2.771359373785e-02 
  2.821396175725e-02 
  2.872252960691e-02 
  2.673364180722e-02 
  2.716939855497e-02 
  2.761694761568e-02 
  2.807822279438e-02 
  2.855378655597e-02 
  2.719325986754e-02 
  2.757652277367e-02 
  2.798176792997e-02 
  2.841165551037e-02 
  2.760371312913e-02 
  2.793613607610e-02 
  2.830186892341e-02 
  2.795324448493e-02 
  2.823692073092e-02 
  2.822462595323e-02 
  2.872237273564e-02 
  2.821406231026e-02 
  2.771360532970e-02 
  2.721715376084e-02 
  2.672459171145e-02 
  2.623341692997e-02 
  2.821554874461e-02 
  2.769071827716e-02 
  2.716037812988e-02 
  2.662390619085e-02 
  2.607639892094e-02 
  2.769674071631e-02 
  2.714253075916e-02 
  2.657374909999e-02 
  2.598844805581e-02 
  2.716562208082e-02 
  2.657647289751e-02 
  2.596329701413e-02 
  2.662718665821e-02 
  2.599587869762e-02 
  2.605148875004e-02 
  3.038040987822e-02 
  2.977704757346e-02 
  2.928684772200e-02 
  2.887975419769e-02 
  2.853377816451e-02 
  2.822473863381e-02 
  3.022170603130e-02 
  2.962586715364e-02 
  2.910943604300e-02 
  2.865174477578e-02 
  2.823684140565e-02 
  2.994689347919e-02 
  2.935115710428e-02 
  2.880786660344e-02 
  2.830191923682e-02 
  2.958862182267e-02 
  2.898589866937e-02 
  2.841170312013e-02 
  2.917325789010e-02 
  2.855373494308e-02 
  2.872307575154e-02 
  2.623360478199e-02 
  2.673373900832e-02 
  2.719324847168e-02 
  2.760380897196e-02 
  2.795339138237e-02 
  2.822427676715e-02 
  2.598039743397e-02 
  2.653387177171e-02 
  2.703492921675e-02 
  2.747898087805e-02 
  2.785558310340e-02 
  2.578055492679e-02 
  2.638728668212e-02 
  2.693815236964e-02 
  2.742263919298e-02 
  2.563690608283e-02 
  2.630662807544e-02 
  2.691360095610e-02 
  2.556299550822e-02 
  2.630394916605e-02 
  2.557375682046e-02 
  3.038005300880e-02 
  3.022171269365e-02 
  2.994684086295e-02 
  2.958864156455e-02 
  2.917309196349e-02 
  2.872393468739e-02 
  3.086856917658e-02 
  3.060423656226e-02 
  3.025538267123e-02 
  2.985258463432e-02 
  2.941401957375e-02 
  3.134010092745e-02 
  3.097261133227e-02 
  3.055610835749e-02 
  3.011406852413e-02 
  3.177466168092e-02 
  3.131470001433e-02 
  3.084035884039e-02 
  3.216161674503e-02 
  3.162195120050e-02 
  3.248726345158e-02 
  2.605155781474e-02 
  2.599608360884e-02 
  2.596352051129e-02 
  2.598855841893e-02 
  2.607609729600e-02 
  2.623382304824e-02 
  2.514438914257e-02 
  2.509956461659e-02 
  2.509799331051e-02 
  2.517365549331e-02 
  2.532894777891e-02 
  2.415081538768e-02 
  2.413309294308e-02 
  2.417793907331e-02 
  2.431907576950e-02 
  2.306192997767e-02 
  2.308271149234e-02 
  2.319387395604e-02 
  2.185760160675e-02 
  2.193090180759e-02 
  2.051272315957e-02 
 -3.465062083412e-07 
 -4.112114601114e-07 
 -3.348457833706e-07 
 -4.685384239381e-07 
 -3.910116558215e-07 
 -1.290461391359e-06 
  1.942733490123e-02 
  1.938630215298e-02 
  1.925703942917e-02 
  1.905451903387e-02 
  1.880360196446e-02 
  2.801601899263e-02 
  2.793905099036e-02 
  2.772903967401e-02 
  2.741694657919e-02 
  3.120314382104e-02 
  3.107798290534e-02 
  3.081536989882e-02 
  3.222645627002e-02 
  3.204694691256e-02 
  3.254265635714e-02 
  2.982148793495e-02 
  2.914962046438e-02 
  2.840397682881e-02 
  2.757136692409e-02 
  2.662781384222e-02 
  2.557353497509e-02 
  2.914382898707e-02 
  2.857209703334e-02 
  2.791701306522e-02 
  2.716237538389e-02 
  2.630398020097e-02 
  2.866742921681e-02 
  2.817912478534e-02 
  2.759250479757e-02 
  2.691362940151e-02 
  2.836550030382e-02 
  2.794220882027e-02 
  2.742263468283e-02 
  2.822429457502e-02 
  2.785564034100e-02 
  2.822385038889e-02 
  3.502084995853e-02 
  3.415486712899e-02 
  3.285012817731e-02 
  3.164399355172e-02 
  3.063368847275e-02 
  2.982292262548e-02 
  3.526910156199e-02 
  3.385032571701e-02 
  3.249479112491e-02 
  3.134985264799e-02 
  3.037528707775e-02 
  3.469769995818e-02 
  3.320872862637e-02 
  3.190836248442e-02 
  3.078579183511e-02 
  3.379876236389e-02 
  3.235703239188e-02 
  3.107940591924e-02 
  3.271595920032e-02 
  3.131081556647e-02 
  3.153028014398e-02 
  3.501815508942e-02 
  3.377322443672e-02 
  3.237220174630e-02 
  3.081629899539e-02 
  2.910423897953e-02 
  2.723609723972e-02 
  3.415550168523e-02 
  3.295494220154e-02 
  3.160133630563e-02 
  3.010846280488e-02 
  2.846696288733e-02 
  3.284942516580e-02 
  3.176925903773e-02 
  3.056571003744e-02 
  2.924111742003e-02 
  3.164481406201e-02 
  3.071753154674e-02 
  2.967721443388e-02 
  3.063281132914e-02 
  2.984429540358e-02 
  2.982616185470e-02 
  3.501872514792e-02 
  3.526932831826e-02 
  3.469693699884e-02 
  3.379913019967e-02 
  3.271519778443e-02 
  3.153351235095e-02 
  3.610787196745e-02 
  3.616318813769e-02 
  3.534330160582e-02 
  3.424216625568e-02 
  3.299691652520e-02 
  3.704130731577e-02 
  3.690695870590e-02 
  3.587435019907e-02 
  3.459075641774e-02 
  3.781943847108e-02 
  3.751493720383e-02 
  3.629219740640e-02 
  3.844297681844e-02 
  3.796875263199e-02 
  3.890867869484e-02 
  3.152706323230e-02 
  3.130997286572e-02 
  3.107854310172e-02 
  3.078552634225e-02 
  3.037470905414e-02 
  2.982043577042e-02 
  3.027334249252e-02 
  3.019105067044e-02 
  3.008711441626e-02 
  2.992429256448e-02 
  2.965046339447e-02 
  2.909970836798e-02 
  2.916520599764e-02 
  2.921019153844e-02 
  2.919617386393e-02 
  2.797925294108e-02 
  2.822508251335e-02 
  2.845239936075e-02 
  2.691282441275e-02 
  2.738743285599e-02 
  2.590163000675e-02 
  2.506313417681e-02 
  2.657739721641e-02 
  2.796215997884e-02 
  2.924190889940e-02 
  3.042088893776e-02 
  3.152579799079e-02 
  2.496928068636e-02 
  2.653325242872e-02 
  2.792050030217e-02 
  2.916042162678e-02 
  3.027343753190e-02 
  2.501605268727e-02 
  2.658261287685e-02 
  2.792880648962e-02 
  2.909941301985e-02 
  2.520016266875e-02 
  2.671393292319e-02 
  2.797958492828e-02 
  2.550457105714e-02 
  2.691267216693e-02 
  2.590298144420e-02 
  3.152919934753e-02 
  3.165447982395e-02 
  3.173775107739e-02 
  3.177677209582e-02 
  3.179594420767e-02 
  3.181499583598e-02 
  3.299780834428e-02 
  3.320946937362e-02 
  3.332410166909e-02 
  3.337408236960e-02 
  3.335323333724e-02 
  3.458954839037e-02 
  3.483893724991e-02 
  3.498639467542e-02 
  3.503451418132e-02 
  3.629362172573e-02 
  3.659368496920e-02 
  3.675448063471e-02 
  3.796802164302e-02 
  3.829724324225e-02 
  3.891211671655e-02 
  2.981902312653e-02 
  2.929342537777e-02 
  2.883054138367e-02 
  2.844468913425e-02 
  2.815367748357e-02 
  2.801688265357e-02 
  2.965072050194e-02 
  2.900379764630e-02 
  2.842239261589e-02 
  2.791337043765e-02 
  2.750797755324e-02 
  2.919588707207e-02 
  2.842170211738e-02 
  2.769142492700e-02 
  2.701525728551e-02 
  2.845257869476e-02 
  2.750916481636e-02 
  2.656392049987e-02 
  2.738726875027e-02 
  2.618681507225e-02 
  2.590311112225e-02 
  2.832199421004e-02 
  2.724186515207e-02 
  2.696026650961e-02 
  2.697108311649e-02 
  2.732648354910e-02 
  2.833535322754e-02 
  2.689366170123e-02 
  2.709969795640e-02 
  2.710473532016e-02 
  2.725262682376e-02 
  2.740900368558e-02 
  2.690405190704e-02 
  2.671090965947e-02 
  2.664600623590e-02 
  2.620404457688e-02 
  2.687906391746e-02 
  2.698434104027e-02 
  2.671816883699e-02 
  2.391074064422e-02 
  2.669171583988e-02 
  3.468975187413e-04 
  2.460115995725e-02 
  2.572275178213e-02 
  2.655172375304e-02 
  2.718203152638e-02 
  2.765779428070e-02 
  2.801977695231e-02 
  2.578909050623e-02 
  2.663794864589e-02 
  2.726395301130e-02 
  2.773440244861e-02 
  2.807735875650e-02 
  2.705805261050e-02 
  2.761779126661e-02 
  2.802413520463e-02 
  2.832211024899e-02 
  2.836685218230e-02 
  2.863032379612e-02 
  2.880880413275e-02 
  2.967087100949e-02 
  2.964236606783e-02 
  3.092708277922e-02 
  2.801651805016e-02 
  2.815372940372e-02 
  2.844459880895e-02 
  2.883064805449e-02 
  2.929333967932e-02 
  2.981950538767e-02 
  2.840418372854e-02 
  2.842314040139e-02 
  2.857971246349e-02 
  2.882808258476e-02 
  2.914395014761e-02 
  2.859636025525e-02 
  2.851302841168e-02 
  2.855005940408e-02 
  2.866690419291e-02 
  2.861680453135e-02 
  2.844249295890e-02 
  2.836560130081e-02 
  2.849006714808e-02 
  2.822409049196e-02 
  2.822447248736e-02 
  1.088239316908e-02 
  1.316960906921e-02 
  1.511692143821e-02 
  1.678497640377e-02 
  1.823083311988e-02 
  1.950984343625e-02 
  1.184785402656e-02 
  1.402317127468e-02 
  1.586390163050e-02 
  1.743406791251e-02 
  1.878349279125e-02 
  1.306512902993e-02 
  1.513212501195e-02 
  1.682579498230e-02 
  1.825799918527e-02 
  1.456577823204e-02 
  1.647064506248e-02 
  1.798048988598e-02 
  1.634100359215e-02 
  1.801357960496e-02 
  1.833182659106e-02 
  1.950828439244e-02 
  2.124808909585e-02 
  2.270325917965e-02 
  2.392956636795e-02 
  2.498488908727e-02 
  2.590571490389e-02 
  2.018619223147e-02 
  2.179217502818e-02 
  2.312331050700e-02 
  2.424963774970e-02 
  2.521717777504e-02 
  2.108395338115e-02 
  2.248896537971e-02 
  2.366114399916e-02 
  2.466050243659e-02 
  2.215510863272e-02 
  2.331689292495e-02 
  2.429872833801e-02 
  2.334411057150e-02 
  2.424173502730e-02 
  2.460231466432e-02 
  2.459978576516e-02 
  2.387394076901e-02 
  2.296410389640e-02 
  2.183694329217e-02 
  2.036014079421e-02 
  1.833226048967e-02 
  2.334338746390e-02 
  2.238900163885e-02 
  2.123888886814e-02 
  1.981903272304e-02 
  1.801361302871e-02 
  2.215498646083e-02 
  2.100900194275e-02 
  1.963944902171e-02 
  1.798036410459e-02 
  2.108361310879e-02 
  1.979018411473e-02 
  1.825782906021e-02 
  2.018558402152e-02 
  1.878361312863e-02 
  1.950967328842e-02 
  1.950814465252e-02 
  2.024595247563e-02 
  2.131753850341e-02 
  2.254118295166e-02 
  2.381470538777e-02 
  2.506464874334e-02 
  2.124828566149e-02 
  2.188709641590e-02 
  2.279464101741e-02 
  2.385166343120e-02 
  2.496920585403e-02 
  2.270345055167e-02 
  2.327226704306e-02 
  2.407582837201e-02 
  2.501594080559e-02 
  2.392934417872e-02 
  2.446500568731e-02 
  2.520027540496e-02 
  2.498510318409e-02 
  2.550485909346e-02 
  2.590426406848e-02 
  3.038001669417e-02 
  3.062345825831e-02 
  3.081858444390e-02 
  3.095550414346e-02 
  3.101066246407e-02 
  3.092769894045e-02 
  2.994003745207e-02 
  3.003823067350e-02 
  3.004360301875e-02 
  2.992563306851e-02 
  2.964226702570e-02 
  2.946170838022e-02 
  2.939906561995e-02 
  2.919707837849e-02 
  2.880897184723e-02 
  2.896622397387e-02 
  2.873565108685e-02 
  2.832197079174e-02 
  2.847503252830e-02 
  2.807743861271e-02 
  2.801929172085e-02 
  2.460339816684e-02 
  2.424148477280e-02 
  2.429899202407e-02 
  2.466035982206e-02 
  2.521733116522e-02 
  2.590505458974e-02 
  2.572249844076e-02 
  2.539597426394e-02 
  2.542726745146e-02 
  2.571436321316e-02 
  2.618738982082e-02 
  2.655204051082e-02 
  2.628843965269e-02 
  2.631451964909e-02 
  2.656451059982e-02 
  2.718192422488e-02 
  2.697726455354e-02 
  2.701581282674e-02 
  2.765799774292e-02 
  2.750832360478e-02 
  2.801831332127e-02 
  3.038071603379e-02 
  2.993979053185e-02 
  2.946152687938e-02 
  2.896585251422e-02 
  2.847473226909e-02 
  2.801751077230e-02 
  2.977701486184e-02 
  2.943609586457e-02 
  2.908224692088e-02 
  2.873172316624e-02 
  2.840405230905e-02 
  2.928695598260e-02 
  2.904548603684e-02 
  2.881146717125e-02 
  2.859657633734e-02 
  2.887967448030e-02 
  2.873766562843e-02 
  2.861685075646e-02 
  2.853390652639e-02 
  2.849037969871e-02 
  2.822433385608e-02 
  1.950882387997e-02 
  1.823116192389e-02 
  1.678487283493e-02 
  1.511662877798e-02 
  1.316968964652e-02 
  1.088294904693e-02 
  1.864925142297e-02 
  1.725924658523e-02 
  1.566789647369e-02 
  1.383579583918e-02 
  1.172659749227e-02 
  1.800253380631e-02 
  1.653118960502e-02 
  1.485502644949e-02 
  1.293764067901e-02 
  1.759090171582e-02 
  1.609125318933e-02 
  1.439811345011e-02 
  1.743147300251e-02 
  1.595925348036e-02 
  1.751656706262e-02 
  3.248776611170e-02 
  3.162185234345e-02 
  3.084051947010e-02 
  3.011392824057e-02 
  2.941408916670e-02 
  2.872358046322e-02 
  3.182604030256e-02 
  3.105220774770e-02 
  3.032249109543e-02 
  2.961530035707e-02 
  2.891456627582e-02 
  3.121242542280e-02 
  3.050251028237e-02 
  2.981037796470e-02 
  2.912340426610e-02 
  3.066224899764e-02 
  3.000297120734e-02 
  2.934016481383e-02 
  3.019087373018e-02 
  2.956023804526e-02 
  2.975455812327e-02 
  3.022728608778e-02 
  2.683574056717e-02 
  2.683979816777e-02 
  2.671209414063e-02 
  2.711594596003e-02 
  2.812202604555e-02 
  2.707312689072e-02 
  2.661449452106e-02 
  2.670910476556e-02 
  2.669581097764e-02 
  2.731961633703e-02 
  2.660976822923e-02 
  2.678767237682e-02 
  2.673156083793e-02 
  2.706975265996e-02 
  2.662202534173e-02 
  2.656985142452e-02 
  2.725905873261e-02 
  2.699354585397e-02 
  2.766624844807e-02 
  2.759144756293e-02 
  3.401103065691e-02 
  3.346261775333e-02 
  3.300160734969e-02 
  3.262720081385e-02 
  3.233634841178e-02 
  3.207691473876e-02 
  3.427677859155e-02 
  3.368353434723e-02 
  3.319147479902e-02 
  3.280018499515e-02 
  3.249591671316e-02 
  3.447848271151e-02 
  3.384774441249e-02 
  3.333490656942e-02 
  3.293036400753e-02 
  3.460851600234e-02 
  3.395349753802e-02 
  3.342947796050e-02 
  3.466760820721e-02 
  3.400157968109e-02 
  3.465401022355e-02 
  3.401056391827e-02 
  3.383048619790e-02 
  3.358511498008e-02 
  3.327542966622e-02 
  3.290576626880e-02 
  3.248681301988e-02 
  3.295208417128e-02 
  3.273638889638e-02 
  3.247421174473e-02 
  3.216944332797e-02 
  3.182609895739e-02 
  3.204057620327e-02 
  3.179448215046e-02 
  3.151738003546e-02 
  3.121222954300e-02 
  3.123410344056e-02 
  3.096069552324e-02 
  3.066232017291e-02 
  3.049289268948e-02 
  3.019063787984e-02 
  2.975534877543e-02 
  3.037948094166e-02 
  3.108011710211e-02 
  3.196183781931e-02 
  3.310641516514e-02 
  3.460941239994e-02 
  3.659249230515e-02 
  3.062332905472e-02 
  3.139671818562e-02 
  3.241723390559e-02 
  3.379288806733e-02 
  3.564610597398e-02 
  3.081830919662e-02 
  3.169380531820e-02 
  3.290267075724e-02 
  3.458540888509e-02 
  3.095536298896e-02 
  3.196596129481e-02 
  3.342576780285e-02 
  3.101071296251e-02 
  3.219500460219e-02 
  3.092674994972e-02 
  3.659255086099e-02 
  3.460949176148e-02 
  3.310647331987e-02 
  3.196190611319e-02 
  3.108017847591e-02 
  3.037947139021e-02 
  3.553624990838e-02 
  3.394125967475e-02 
  3.268355771330e-02 
  3.168319329672e-02 
  3.086824755373e-02 
  3.462713423742e-02 
  3.331293575027e-02 
  3.223565396110e-02 
  3.133968821947e-02 
  3.383120005383e-02 
  3.272092167604e-02 
  3.177415338288e-02 
  3.312487124379e-02 
  3.216100132413e-02 
  3.248615922872e-02 
  4.032792022094e-02 
  3.987750184736e-02 
  3.926968709497e-02 
  3.850922569509e-02 
  3.760730239532e-02 
  3.659445760058e-02 
  3.804685601523e-02 
  3.757062175651e-02 
  3.698159241253e-02 
  3.629606393887e-02 
  3.553607975502e-02 
  3.620801504668e-02 
  3.574609798924e-02 
  3.521483886116e-02 
  3.462744101530e-02 
  3.472428604192e-02 
  3.429906283077e-02 
  3.383097442599e-02 
  3.351173549099e-02 
  3.312487839474e-02 
  3.248502955707e-02 
  3.797053197059e-02 
  3.683127894784e-02 
  3.513525573722e-02 