# vtk DataFile Version 2
NuDG++ 2D simulation
ASCII
DATASET UNSTRUCTURED_GRID

POINTS 7854 double
 -1.656250060000e-01  -2.000000030000e-01  0.0
 -1.725000054000e-01  -1.908888817000e-01  0.0
 -1.793750048000e-01  -1.817777604000e-01  0.0
 -1.862500042000e-01  -1.726666391000e-01  0.0
 -1.931250036000e-01  -1.635555178000e-01  0.0
 -2.000000030000e-01  -1.544443965000e-01  0.0
 -1.725000054000e-01  -2.000000030000e-01  0.0
 -1.793750048000e-01  -1.908888817000e-01  0.0
 -1.862500042000e-01  -1.817777604000e-01  0.0
 -1.931250036000e-01  -1.726666391000e-01  0.0
 -2.000000030000e-01  -1.635555178000e-01  0.0
 -1.793750048000e-01  -2.000000030000e-01  0.0
 -1.862500042000e-01  -1.908888817000e-01  0.0
 -1.931250036000e-01  -1.817777604000e-01  0.0
 -2.000000030000e-01  -1.726666391000e-01  0.0
 -1.862500042000e-01  -2.000000030000e-01  0.0
 -1.931250036000e-01  -1.908888817000e-01  0.0
 -2.000000030000e-01  -1.817777604000e-01  0.0
 -1.931250036000e-01  -2.000000030000e-01  0.0
 -2.000000030000e-01  -1.908888817000e-01  0.0
 -2.000000030000e-01  -2.000000030000e-01  0.0
 -6.428571790000e-02  -1.700000018000e-01  0.0
 -7.080357372400e-02  -1.760000020400e-01  0.0
 -7.732142954800e-02  -1.820000022800e-01  0.0
 -8.383928537200e-02  -1.880000025200e-01  0.0
 -9.035714119600e-02  -1.940000027600e-01  0.0
 -9.687499702000e-02  -2.000000030000e-01  0.0
 -6.392857432000e-02  -1.760000020400e-01  0.0
 -7.044643014400e-02  -1.820000022800e-01  0.0
 -7.696428596800e-02  -1.880000025200e-01  0.0
 -8.348214179200e-02  -1.940000027600e-01  0.0
 -8.999999761600e-02  -2.000000030000e-01  0.0
 -6.357143074000e-02  -1.820000022800e-01  0.0
 -7.008928656400e-02  -1.880000025200e-01  0.0
 -7.660714238800e-02  -1.940000027600e-01  0.0
 -8.312499821200e-02  -2.000000030000e-01  0.0
 -6.321428716000e-02  -1.880000025200e-01  0.0
 -6.973214298400e-02  -1.940000027600e-01  0.0
 -7.624999880800e-02  -2.000000030000e-01  0.0
 -6.285714358000e-02  -1.940000027600e-01  0.0
 -6.937499940400e-02  -2.000000030000e-01  0.0
 -6.250000000000e-02  -2.000000030000e-01  0.0
 -2.000000030000e-01  -1.544443965000e-01  0.0
 -1.900000036000e-01  -1.478412374800e-01  0.0
 -1.800000042000e-01  -1.412380784600e-01  0.0
 -1.700000048000e-01  -1.346349194400e-01  0.0
 -1.600000054000e-01  -1.280317604200e-01  0.0
 -1.500000060000e-01  -1.214286014000e-01  0.0
 -2.000000030000e-01  -1.453332975600e-01  0.0
 -1.900000036000e-01  -1.387301385400e-01  0.0
 -1.800000042000e-01  -1.321269795200e-01  0.0
 -1.700000048000e-01  -1.255238205000e-01  0.0
 -1.600000054000e-01  -1.189206614800e-01  0.0
 -2.000000030000e-01  -1.362221986200e-01  0.0
 -1.900000036000e-01  -1.296190396000e-01  0.0
 -1.800000042000e-01  -1.230158805800e-01  0.0
 -1.700000048000e-01  -1.164127215600e-01  0.0
 -2.000000030000e-01  -1.271110996800e-01  0.0
 -1.900000036000e-01  -1.205079406600e-01  0.0
 -1.800000042000e-01  -1.139047816400e-01  0.0
 -2.000000030000e-01  -1.180000007400e-01  0.0
 -1.900000036000e-01  -1.113968417200e-01  0.0
 -2.000000030000e-01  -1.088889018000e-01  0.0
 -1.500000060000e-01  -1.214286014000e-01  0.0
 -1.600000054000e-01  -1.280317604200e-01  0.0
 -1.700000048000e-01  -1.346349194400e-01  0.0
 -1.800000042000e-01  -1.412380784600e-01  0.0
 -1.900000036000e-01  -1.478412374800e-01  0.0
 -2.000000030000e-01  -1.544443965000e-01  0.0
 -1.500000060000e-01  -1.311428814800e-01  0.0
 -1.600000054000e-01  -1.377460405000e-01  0.0
 -1.700000048000e-01  -1.443491995200e-01  0.0
 -1.800000042000e-01  -1.509523585400e-01  0.0
 -1.900000036000e-01  -1.575555175600e-01  0.0
 -1.500000060000e-01  -1.408571615600e-01  0.0
 -1.600000054000e-01  -1.474603205800e-01  0.0
 -1.700000048000e-01  -1.540634796000e-01  0.0
 -1.800000042000e-01  -1.606666386200e-01  0.0
 -1.500000060000e-01  -1.505714416400e-01  0.0
 -1.600000054000e-01  -1.571746006600e-01  0.0
 -1.700000048000e-01  -1.637777596800e-01  0.0
 -1.500000060000e-01  -1.602857217200e-01  0.0
 -1.600000054000e-01  -1.668888807400e-01  0.0
 -1.500000060000e-01  -1.700000018000e-01  0.0
 -1.500000060000e-01  -7.285714149000e-02  0.0
 -1.600000054000e-01  -8.006349355200e-02  0.0
 -1.700000048000e-01  -8.726984561400e-02  0.0
 -1.800000042000e-01  -9.447619767600e-02  0.0
 -1.900000036000e-01  -1.016825497380e-01  0.0
 -2.000000030000e-01  -1.088889018000e-01  0.0
 -1.500000060000e-01  -8.257143347200e-02  0.0
 -1.600000054000e-01  -8.977778553400e-02  0.0
 -1.700000048000e-01  -9.698413759600e-02  0.0
 -1.800000042000e-01  -1.041904896580e-01  0.0
 -1.900000036000e-01  -1.113968417200e-01  0.0
 -1.500000060000e-01  -9.228572545400e-02  0.0
 -1.600000054000e-01  -9.949207751600e-02  0.0
 -1.700000048000e-01  -1.066984295780e-01  0.0
 -1.800000042000e-01  -1.139047816400e-01  0.0
 -1.500000060000e-01  -1.020000174360e-01  0.0
 -1.600000054000e-01  -1.092063694980e-01  0.0
 -1.700000048000e-01  -1.164127215600e-01  0.0
 -1.500000060000e-01  -1.117143094180e-01  0.0
 -1.600000054000e-01  -1.189206614800e-01  0.0
 -1.500000060000e-01  -1.214286014000e-01  0.0
  1.832975030000e+00  -4.625000060000e-02  0.0
  1.841380024000e+00  -7.700000108000e-02  0.0
  1.849785018000e+00  -1.077500015600e-01  0.0
  1.858190012000e+00  -1.385000020400e-01  0.0
  1.866595006000e+00  -1.692500025200e-01  0.0
  1.875000000000e+00  -2.000000030000e-01  0.0
  1.866380024000e+00  -5.649999976400e-02  0.0
  1.874785018000e+00  -8.725000024400e-02  0.0
  1.883190012000e+00  -1.180000007240e-01  0.0
  1.891595006000e+00  -1.487500012040e-01  0.0
  1.900000000000e+00  -1.795000016840e-01  0.0
  1.899785018000e+00  -6.674999892800e-02  0.0
  1.908190012000e+00  -9.749999940800e-02  0.0
  1.916595006000e+00  -1.282499998880e-01  0.0
  1.925000000000e+00  -1.590000003680e-01  0.0
  1.933190012000e+00  -7.699999809200e-02  0.0
  1.941595006000e+00  -1.077499985720e-01  0.0
  1.950000000000e+00  -1.384999990520e-01  0.0
  1.966595006000e+00  -8.724999725600e-02  0.0
  1.975000000000e+00  -1.179999977360e-01  0.0
  2.000000000000e+00  -9.749999642000e-02  0.0
 -1.500000060000e-01  -1.700000018000e-01  0.0
 -1.444000050800e-01  -1.630000025200e-01  0.0
 -1.388000041600e-01  -1.560000032400e-01  0.0
 -1.332000032400e-01  -1.490000039600e-01  0.0
 -1.276000023200e-01  -1.420000046800e-01  0.0
 -1.220000014000e-01  -1.350000054000e-01  0.0
 -1.500000060000e-01  -1.602857217200e-01  0.0
 -1.444000050800e-01  -1.532857224400e-01  0.0
 -1.388000041600e-01  -1.462857231600e-01  0.0
 -1.332000032400e-01  -1.392857238800e-01  0.0
 -1.276000023200e-01  -1.322857246000e-01  0.0
 -1.500000060000e-01  -1.505714416400e-01  0.0
 -1.444000050800e-01  -1.435714423600e-01  0.0
 -1.388000041600e-01  -1.365714430800e-01  0.0
 -1.332000032400e-01  -1.295714438000e-01  0.0
 -1.500000060000e-01  -1.408571615600e-01  0.0
 -1.444000050800e-01  -1.338571622800e-01  0.0
 -1.388000041600e-01  -1.268571630000e-01  0.0
 -1.500000060000e-01  -1.311428814800e-01  0.0
 -1.444000050800e-01  -1.241428822000e-01  0.0
 -1.500000060000e-01  -1.214286014000e-01  0.0
  2.849999964000e-01  -2.333333530000e-02  0.0
  2.844999968800e-01  -4.666666836000e-02  0.0
  2.839999973600e-01  -7.000000142000e-02  0.0
  2.834999978400e-01  -9.333333448000e-02  0.0
  2.829999983200e-01  -1.166666675400e-01  0.0
  2.824999988000e-01  -1.400000006000e-01  0.0
  2.979999959200e-01  -3.266666830000e-02  0.0
  2.974999964000e-01  -5.600000136000e-02  0.0
  2.969999968800e-01  -7.933333442000e-02  0.0
  2.964999973600e-01  -1.026666674800e-01  0.0
  2.959999978400e-01  -1.260000005400e-01  0.0
  3.109999954400e-01  -4.200000130000e-02  0.0
  3.104999959200e-01  -6.533333436000e-02  0.0
  3.099999964000e-01  -8.866666742000e-02  0.0
  3.094999968800e-01  -1.120000004800e-01  0.0
  3.239999949600e-01  -5.133333430000e-02  0.0
  3.234999954400e-01  -7.466666736000e-02  0.0
  3.229999959200e-01  -9.800000042000e-02  0.0
  3.369999944800e-01  -6.066666730000e-02  0.0
  3.364999949600e-01  -8.400000036000e-02  0.0
  3.499999940000e-01  -7.000000030000e-02  0.0
 -1.071429029000e-01  -1.700000018000e-01  0.0
 -9.857146590000e-02  -1.700000018000e-01  0.0
 -9.000002890000e-02  -1.700000018000e-01  0.0
 -8.142859190000e-02  -1.700000018000e-01  0.0
 -7.285715490000e-02  -1.700000018000e-01  0.0
 -6.428571790000e-02  -1.700000018000e-01  0.0
 -1.037143230360e-01  -1.630000025200e-01  0.0
 -9.514288603600e-02  -1.630000025200e-01  0.0
 -8.657144903600e-02  -1.630000025200e-01  0.0
 -7.800001203600e-02  -1.630000025200e-01  0.0
 -6.942857503600e-02  -1.630000025200e-01  0.0
 -1.002857431720e-01  -1.560000032400e-01  0.0
 -9.171430617200e-02  -1.560000032400e-01  0.0
 -8.314286917200e-02  -1.560000032400e-01  0.0
 -7.457143217200e-02  -1.560000032400e-01  0.0
 -9.685716330800e-02  -1.490000039600e-01  0.0
 -8.828572630800e-02  -1.490000039600e-01  0.0
 -7.971428930800e-02  -1.490000039600e-01  0.0
 -9.342858344400e-02  -1.420000046800e-01  0.0
 -8.485714644400e-02  -1.420000046800e-01  0.0
 -9.000000358000e-02  -1.350000054000e-01  0.0
 -1.312499940000e-01  -2.000000030000e-01  0.0
 -1.264285757800e-01  -1.940000027600e-01  0.0
 -1.216071575600e-01  -1.880000025200e-01  0.0
 -1.167857393400e-01  -1.820000022800e-01  0.0
 -1.119643211200e-01  -1.760000020400e-01  0.0
 -1.071429029000e-01  -1.700000018000e-01  0.0
 -1.349999964000e-01  -1.940000027600e-01  0.0
 -1.301785781800e-01  -1.880000025200e-01  0.0
 -1.253571599600e-01  -1.820000022800e-01  0.0
 -1.205357417400e-01  -1.760000020400e-01  0.0
 -1.157143235200e-01  -1.700000018000e-01  0.0
 -1.387499988000e-01  -1.880000025200e-01  0.0
 -1.339285805800e-01  -1.820000022800e-01  0.0
 -1.291071623600e-01  -1.760000020400e-01  0.0
 -1.242857441400e-01  -1.700000018000e-01  0.0
 -1.425000012000e-01  -1.820000022800e-01  0.0
 -1.376785829800e-01  -1.760000020400e-01  0.0
 -1.328571647600e-01  -1.700000018000e-01  0.0
 -1.462500036000e-01  -1.760000020400e-01  0.0
 -1.414285853800e-01  -1.700000018000e-01  0.0
 -1.500000060000e-01  -1.700000018000e-01  0.0
[...]
POINT_DATA 7854
SCALARS field1 double 1
LOOKUP_TABLE default
 -4.040789588387e-06 
  1.472443023777e-02 
  1.780877021211e-02 
  1.862989218509e-02 
  2.073515327932e-02 
  2.445286892206e-02 
 -3.285876390329e-06 
  1.214552222634e-02 
  1.465089767123e-02 
  1.638948807216e-02 
  2.004673994011e-02 
  2.090405764191e-06 
  9.268906961969e-03 
  1.186715723068e-02 
  1.540665689027e-02 
  7.490416520978e-06 
  6.633683784776e-03 
  1.051880725165e-02 
 -3.004609950486e-06 
  5.376951959642e-03 
  2.387925868157e-06 
  4.725254995372e-02 
  4.537646794943e-02 
  4.197084958331e-02 
  3.529055823365e-02 
  2.254459076703e-02 
 -5.712964531353e-07 
  4.619551757502e-02 
  4.278818257787e-02 
  3.604064682419e-02 
  2.306412369026e-02 
 -2.081858887635e-07 
  4.355207978716e-02 
  3.674180447580e-02 
  2.355441970721e-02 
 -2.393938180488e-07 
  3.739649867035e-02 
  2.401343529098e-02 
 -2.331247749815e-07 
  2.443962564484e-02 
 -1.252053791674e-07 
 -3.507082205364e-07 
  2.445418322128e-02 
  2.816265145760e-02 
  3.208983371298e-02 
  3.546850596084e-02 
  3.818123214649e-02 
  4.037293311039e-02 
  2.861035544753e-02 
  3.187869431763e-02 
  3.515396594968e-02 
  3.794752554624e-02 
  4.017652689044e-02 
  3.252281677957e-02 
  3.539077366588e-02 
  3.808641600339e-02 
  4.032137784612e-02 
  3.618983207636e-02 
  3.869492310587e-02 
  4.085355505839e-02 
  3.961236515510e-02 
  4.177606645194e-02 
  4.279261409518e-02 
  4.037198694219e-02 
  3.818134933127e-02 
  3.546747629397e-02 
  3.209030736479e-02 
  2.816222964674e-02 
  2.445624132693e-02 
  3.864159099550e-02 
  3.600590089558e-02 
  3.274483082956e-02 
  2.870488827187e-02 
  2.405175656791e-02 
  3.688212096899e-02 
  3.383373988601e-02 
  3.002854821564e-02 
  2.528466597910e-02 
  3.518799765605e-02 
  3.175061244636e-02 
  2.739491968747e-02 
  3.362665889476e-02 
  2.977854240593e-02 
  3.208096204766e-02 
  4.715109278497e-02 
  4.721809950766e-02 
  4.689761338298e-02 
  4.612426957414e-02 
  4.479681907445e-02 
  4.279385179449e-02 
  4.613474957856e-02 
  4.572012692336e-02 
  4.489624732246e-02 
  4.359791435668e-02 
  4.177563321778e-02 
  4.491889490718e-02 
  4.404314395787e-02 
  4.270386900071e-02 
  4.085295263062e-02 
  4.353898908562e-02 
  4.219375541210e-02 
  4.032130479785e-02 
  4.201315159621e-02 
  4.017704923585e-02 
  4.037116808460e-02 
  4.825515098538e-02 
  3.975735015402e-02 
  4.103800386998e-02 
  4.155374896820e-02 
  4.483509303207e-02 
  4.794822605782e-04 
  4.272402796996e-02 
  4.281498249800e-02 
  4.182923998260e-02 
  4.206302493445e-02 
  3.950898195900e-02 
  4.257664279982e-02 
  4.291467998795e-02 
  4.161964532505e-02 
  4.247260723719e-02 
  4.248996857434e-02 
  4.222834265260e-02 
  4.100813962575e-02 
  4.297479967070e-02 
  4.082754488408e-02 
  4.425802076098e-02 
  3.208126078370e-02 
  3.454786211424e-02 
  3.664095272154e-02 
  3.848165122668e-02 
  4.012306825856e-02 
  4.156969898899e-02 
  3.362550610670e-02 
  3.587892876822e-02 
  3.786358872829e-02 
  3.961051080504e-02 
  4.114211425955e-02 
  3.518785102539e-02 
  3.732408704663e-02 
  3.918270338568e-02 
  4.078856271019e-02 
  3.688197660873e-02 
  3.885085641066e-02 
  4.053453134481e-02 
  3.864025573055e-02 
  4.038624053974e-02 
  4.037183026124e-02 
  4.335823701450e-02 
  4.216850908010e-02 
  4.271485364776e-02 
  4.283325609572e-02 
  4.285339589620e-02 
  4.444109330908e-02 
  4.250660179539e-02 
  4.251016524040e-02 
  4.278019835257e-02 
  4.273924237603e-02 
  4.292531041312e-02 
  4.257300878748e-02 
  4.272535826777e-02 
  4.279085097494e-02 
  4.270740318839e-02 
  4.295026914942e-02 
  4.279073718502e-02 
  4.276036141816e-02 
  4.292724450386e-02 
  4.288592052618e-02 
  4.244379877844e-02 
  4.115645380985e-02 
  4.255343425059e-02 
  4.384877539730e-02 
  4.506323620359e-02 
  4.619653296632e-02 
  4.725503080486e-02 
  4.230625131578e-02 
  4.362964063953e-02 
  4.487962492252e-02 
  4.605797514342e-02 
  4.716552031733e-02 
  4.322895393240e-02 
  4.448700510098e-02 
  4.569102151308e-02 
  4.684310564594e-02 
  4.409525183861e-02 
  4.529761610610e-02 
  4.647031303347e-02 
  4.493324807604e-02 
  4.609824376330e-02 
  4.575174221830e-02 
  3.216409778184e-07 
  1.913891899590e-02 
  3.017397903404e-02 
  3.612999784079e-02 
  3.930924526159e-02 
  4.115679551965e-02 
  1.809220320069e-02 
  2.868294349104e-02 
  3.452020288192e-02 
  3.772521604676e-02 
  3.967182083064e-02 
  2.700400885888e-02 
  3.272981739901e-02 
  3.598770986480e-02 
  3.804557072585e-02 
  3.071300508945e-02 
  3.405547950174e-02 
  3.626270803287e-02 
  3.188136931438e-02 
  3.428801035328e-02 
  3.208091697375e-02 
  4.157251120766e-02 
  4.240286494227e-02 
  4.322904170181e-02 
  4.406190932549e-02 
  4.489911723627e-02 
  4.575113600911e-02 
  4.237908685090e-02 
  4.311201782093e-02 
  4.386381508773e-02 
  4.463832225913e-02 
  4.543644113458e-02 
  4.311322336766e-02 
  4.376031772551e-02 
  4.444228144604e-02 
  4.516493619988e-02 
  4.376543958709e-02 
  4.432922545122e-02 
  4.494682369669e-02 
  4.431768615155e-02 
  4.480018365424e-02 
  4.474076755692e-02 
  4.575090794450e-02 
  4.489927691229e-02 
  4.406188234032e-02 
  4.322912301057e-02 
  4.240289105191e-02 
  4.157279432003e-02 
  4.493370497038e-02 
  4.405735925680e-02 
  4.317239367612e-02 
  4.227694841216e-02 
  4.136670807481e-02 
  4.409511422863e-02 
  4.317237105068e-02 
  4.222658505508e-02 
  4.125431012668e-02 
  4.322921921618e-02 
  4.225074329739e-02 
  4.123388071364e-02 
  4.230638924634e-02 
  4.126383459378e-02 
  4.115726273561e-02 
  4.836433124710e-02 
  4.735475548057e-02 
  4.652952663129e-02 
  4.584281060646e-02 
  4.525915034589e-02 
  4.474088514146e-02 
  4.812951688251e-02 
  4.712949564452e-02 
  4.626314925083e-02 
  4.549573671312e-02 
  4.480011144798e-02 
  4.769785847815e-02 
  4.670121341059e-02 
  4.579213410993e-02 
  4.494679708981e-02 
  4.712954555495e-02 
  4.612277875782e-02 
  4.516490116668e-02 
  4.646782580400e-02 
  4.543632912519e-02 
  4.575156520320e-02 
  4.157160564416e-02 
  4.237913426742e-02 
  4.311316307840e-02 
  4.376539979921e-02 
  4.431785792978e-02 
  4.474043711817e-02 
  4.114174995122e-02 
  4.202359624580e-02 
  4.282734814517e-02 
  4.353621782526e-02 
  4.413224100452e-02 
  4.078881499204e-02 
  4.175978873864e-02 
  4.263994642292e-02 
  4.341427870184e-02 
  4.053387247617e-02 
  4.159975779231e-02 
  4.256451222452e-02 
  4.038626700664e-02 
  4.155695227439e-02 
  4.037085150914e-02 
  4.836389451093e-02 
  4.812950758622e-02 
  4.769781454330e-02 
  4.712958921492e-02 
  4.646766502921e-02 
  4.575247641497e-02 
  4.920349657814e-02 
  4.878826410143e-02 
  4.823401230802e-02 
  4.759025275490e-02 
  4.688966920045e-02 
  5.001074904421e-02 
  4.942349493332e-02 
  4.875569138342e-02 
  4.804610578465e-02 
  5.075573761772e-02 
  5.001434214300e-02 
  4.924925836899e-02 
  5.142086169006e-02 
  5.054623952945e-02 
  5.198785330444e-02 
  4.115717662826e-02 
  4.126421179375e-02 
  4.123414748001e-02 
  4.125435716581e-02 
  4.136669337861e-02 
  4.157168753434e-02 
  3.967207311889e-02 
  3.978354714429e-02 
  3.980189939009e-02 
  3.990224065533e-02 
  4.012282335069e-02 
  3.804571161176e-02 
  3.818799534877e-02 
  3.827599900875e-02 
  3.848179068172e-02 
  3.626291827377e-02 
  3.645141107443e-02 
  3.664037806176e-02 
  3.428815555183e-02 
  3.454759863400e-02 
  3.208106141246e-02 
 -7.380581164169e-08 
 -2.172441995108e-07 
 -1.462834155894e-07 
 -2.618632384307e-07 
 -2.062886674616e-07 
 -8.655451131379e-07 
  2.671654009187e-02 
  2.664398742039e-02 
  2.643717068901e-02 
  2.612466675422e-02 
  2.574145742589e-02 
  4.093073391554e-02 
  4.078771119466e-02 
  4.043953204119e-02 
  3.993812876051e-02 
  4.772799130066e-02 
  4.750563498945e-02 
  4.705708930752e-02 
  5.066713015176e-02 
  5.035533516123e-02 
  5.184980665291e-02 
  4.715009524935e-02 
  4.613343777314e-02 
  4.491859762436e-02 
  4.353946650069e-02 
  4.201340369173e-02 
  4.037088908933e-02 
  4.610425092218e-02 
  4.520282908044e-02 
  4.413553906745e-02 
  4.291341807720e-02 
  4.155685051070e-02 
  4.535052475747e-02 
  4.457650138953e-02 
  4.364094107620e-02 
  4.256464074021e-02 
  4.487894582711e-02 
  4.422639400384e-02 
  4.341445299574e-02 
  4.468890194233e-02 
  4.413225045024e-02 
  4.474010991855e-02 
  5.501781259951e-02 
  5.385059833980e-02 
  5.194346911136e-02 
  5.005583178307e-02 
  4.844637971886e-02 
  4.715216551016e-02 
  5.561655920919e-02 
  5.354724629924e-02 
  5.143474026153e-02 
  4.957326399062e-02 
  4.798866018472e-02 
  5.491268839964e-02 
  5.258981640445e-02 
  5.049208800972e-02 
  4.865876154688e-02 
  5.354642412420e-02 
  5.123283669733e-02 
  4.917094558213e-02 
  5.182009341794e-02 
  4.955055655876e-02 
  4.982918151186e-02 
  5.501807113933e-02 
  5.306104252948e-02 
  5.086080801439e-02 
  4.841698833240e-02 
  4.572756136051e-02 
  4.279258843592e-02 
  5.385066751574e-02 
  5.193675648796e-02 
  4.978695171007e-02 
  4.740868852927e-02 
  4.479656306885e-02 
  5.194424361852e-02 
  5.021418251015e-02 
  4.826772965331e-02 
  4.612361903728e-02 
  5.005517005124e-02 
  4.857256154345e-02 
  4.689880682241e-02 
  4.844581059028e-02 
  4.721820274514e-02 
  4.715289888117e-02 
  5.501793858885e-02 
  5.561584417408e-02 
  5.491216217767e-02 
  5.354670424251e-02 
  5.182041121197e-02 
  4.982908299994e-02 
  5.673045368341e-02 
  5.703801830471e-02 
  5.597130860559e-02 
  5.425804725255e-02 
  5.224150723194e-02 
  5.819711806329e-02 
  5.823076742119e-02 
  5.683326201190e-02 
  5.480822191225e-02 
  5.941866765653e-02 
  5.919209083997e-02 
  5.749221521203e-02 
  6.039702589336e-02 
  5.992303501756e-02 
  6.112961375283e-02 
  4.982967949269e-02 
  4.954962615079e-02 
  4.917066010243e-02 
  4.865944355231e-02 
  4.798962093062e-02 
  4.714960390410e-02 
  4.780945153515e-02 
  4.771340817750e-02 
  4.755345553037e-02 
  4.728264072047e-02 
  4.685810712197e-02 
  4.589607225617e-02 
  4.603378558968e-02 
  4.612971930537e-02 
  4.612285860032e-02 
  4.406635538341e-02 
  4.450459132788e-02 
  4.491103708264e-02 
  4.232215255374e-02 
  4.314056936592e-02 
  4.068553649136e-02 
  3.925500924856e-02 
  4.173143459881e-02 
  4.401136763686e-02 
  4.610170405051e-02 
  4.803101211695e-02 
  4.982964498772e-02 
  3.908031570660e-02 
  4.166163569272e-02 
  4.394198951444e-02 
  4.597862908930e-02 
  4.780933564546e-02 
  3.916170804163e-02 
  4.174638987329e-02 
  4.396519461959e-02 
  4.589594786945e-02 
  3.947644345155e-02 
  4.197406115394e-02 
  4.406654898245e-02 
  3.999628365731e-02 
  4.232217590279e-02 
  4.068572632131e-02 
  4.983041467578e-02 
  5.001634463748e-02 
  5.016171683145e-02 
  5.025053430221e-02 
  5.029187899048e-02 
  5.029183117281e-02 
  5.224139183970e-02 
  5.256552428592e-02 
  5.276467661276e-02 
  5.284902383607e-02 
  5.282848630102e-02 
  5.480917445580e-02 
  5.522704475604e-02 
  5.546650757040e-02 
  5.553702745361e-02 
  5.749160612347e-02 
  5.797337220514e-02 
  5.823564147327e-02 
  5.992332249518e-02 
  6.043939366442e-02 
  6.112805265381e-02 
  4.714809180837e-02 
  4.631355831863e-02 
  4.557876340565e-02 
  4.496694266428e-02 
  4.450784855311e-02 
  4.429795692201e-02 
  4.685846768646e-02 
  4.583312749653e-02 
  4.490342444481e-02 
  4.408133776104e-02 
  4.342758319711e-02 
  4.612252064576e-02 
  4.487830843589e-02 
  4.369082745081e-02 
  4.258191262231e-02 
  4.491084520240e-02 
  4.336730667156e-02 
  4.180888383373e-02 
  4.314051273120e-02 
  4.116285850932e-02 
  4.068595389767e-02 
  4.502694444963e-02 
  4.310497257229e-02 
  4.242674036648e-02 
  4.256100807344e-02 
  4.347686301245e-02 
  4.432398680485e-02 
  4.268637518018e-02 
  4.278517316579e-02 
  4.281951216579e-02 
  4.344512315052e-02 
  4.452170017903e-02 
  4.261959449147e-02 
  4.237167843365e-02 
  4.217485690991e-02 
  4.174393620205e-02 
  4.206396406474e-02 
  4.263664717030e-02 
  4.177566196151e-02 
  3.522630515661e-02 
  4.032804982382e-02 
  2.215039984064e-04 
  3.853131791086e-02 
  4.044387854301e-02 
  4.184302462135e-02 
  4.290115693220e-02 
  4.369847942169e-02 
  4.430212557060e-02 
  4.050136038260e-02 
  4.197902779177e-02 
  4.304382951061e-02 
  4.383637932959e-02 
  4.441399813940e-02 
  4.261387644603e-02 
  4.362330395281e-02 
  4.432503387742e-02 
  4.483127473621e-02 
  4.480127679643e-02 
  4.532415456854e-02 
  4.564805068863e-02 
  4.698812646948e-02 
  4.702561893082e-02 
  4.910291692744e-02 
  4.429767694282e-02 
  4.450788386781e-02 
  4.496685580939e-02 
  4.557897265518e-02 
  4.631352659734e-02 
  4.714856672338e-02 
  4.496116312843e-02 
  4.496956354298e-02 
  4.520212013571e-02 
  4.559287349162e-02 
  4.610410156517e-02 
  4.529741061807e-02 
  4.513031894570e-02 
  4.516810174419e-02 
  4.534998188488e-02 
  4.534638116443e-02 
  4.502828453846e-02 
  4.487927518476e-02 
  4.515360696083e-02 
  4.468873866270e-02 
  4.474074468094e-02 
  1.592990788155e-02 
  1.958595636900e-02 
  2.276826078110e-02 
  2.552714275239e-02 
  2.793155313745e-02 
  3.005313065890e-02 
  1.737132958539e-02 
  2.090564394102e-02 
  2.395333304105e-02 
  2.657619547645e-02 
  2.883828924254e-02 
  1.920532654636e-02 
  2.262466317088e-02 
  2.548227391402e-02 
  2.791068018644e-02 
  2.147581345371e-02 
  2.470909991557e-02 
  2.732363270193e-02 
  2.417685075178e-02 
  2.712537101081e-02 
  2.723579835539e-02 
  3.005032091927e-02 
  3.295308105251e-02 
  3.537067687590e-02 
  3.740755507029e-02 
  3.915631547200e-02 
  4.068726513901e-02 
  3.118144696011e-02 
  3.386378137647e-02 
  3.607976300624e-02 
  3.795087761680e-02 
  3.955388580288e-02 
  3.267028662108e-02 
  3.502931185982e-02 
  3.698405171886e-02 
  3.864435037133e-02 
  3.444845638977e-02 
  3.641354969181e-02 
  3.805448913639e-02 
  3.642909637847e-02 
  3.796073119148e-02 
  3.853284933695e-02 
  3.852954947713e-02 
  3.724795597555e-02 
  3.561627796808e-02 
  3.355297699915e-02 
  3.084851927464e-02 
  2.723651077119e-02 
  3.642829889310e-02 
  3.478258394902e-02 
  3.277371559752e-02 
  3.027756789846e-02 
  2.712539622986e-02 
  3.444839934717e-02 
  3.249993873585e-02 
  3.015895100221e-02 
  2.732349198475e-02 
  3.266999094173e-02 
  3.049165835112e-02 
  2.791042355568e-02 
  3.118076424498e-02 
  2.883847046814e-02 
  3.005275375046e-02 
  3.004934293871e-02 
  3.128050795135e-02 
  3.304787069051e-02 
  3.507009843724e-02 
  3.717145956259e-02 
  3.925444222869e-02 
  3.295337430813e-02 
  3.400183046003e-02 
  3.549637661297e-02 
  3.723670798280e-02 
  3.908008732810e-02 
  3.537075109216e-02 
  3.630004024159e-02 
  3.761668388139e-02 
  3.916129169443e-02 
  3.740735336297e-02 
  3.827516427219e-02 
  3.947627006283e-02 
  3.915647375969e-02 
  3.999639419190e-02 
  4.068600950596e-02 
  4.836427489672e-02 
  4.875704726076e-02 
  4.906644639341e-02 
  4.927557037543e-02 
  4.933471001032e-02 
  4.910375212130e-02 
  4.760656869827e-02 
  4.775526158590e-02 
  4.774791861247e-02 
  4.753313487385e-02 
  4.702548164796e-02 
  4.678332775426e-02 
  4.666437261882e-02 
  4.631244795689e-02 
  4.564827890031e-02 
  4.593104862911e-02 
  4.553383660681e-02 
  4.483108852841e-02 
  4.508750975671e-02 
  4.441409997519e-02 
  4.430149888684e-02 
  3.853412291362e-02 
  3.796040563994e-02 
  3.805479113803e-02 
  3.864423414031e-02 
  3.955401101363e-02 
  4.068682627491e-02 
  4.044347617956e-02 
  3.989747202305e-02 
  3.993600676223e-02 
  4.039680910910e-02 
  4.116355588645e-02 
  4.184339746038e-02 
  4.138921045283e-02 
  4.141475885312e-02 
  4.180961189348e-02 
  4.290100622038e-02 
  4.254036414457e-02 
  4.258274853532e-02 
  4.369872753653e-02 
  4.342795127736e-02 
  4.430009469128e-02 
  4.836483399773e-02 
  4.760628484564e-02 
  4.678303445701e-02 
  4.593048329979e-02 
  4.508714195800e-02 
  4.429907507773e-02 
  4.735471564215e-02 
  4.675922831547e-02 
  4.614337453941e-02 
  4.553327524864e-02 
  4.496098775506e-02 
  4.652967388304e-02 
  4.609998786272e-02 
  4.568217325998e-02 
  4.529755354711e-02 
  4.584271287975e-02 
  4.557705327871e-02 
  4.534635132698e-02 
  4.525928292315e-02 
  4.515401152974e-02 
  4.474043630598e-02 
  3.005139598862e-02 
  2.793204314568e-02 
  2.552693181896e-02 
  2.276792570140e-02 
  1.958599322366e-02 
  1.593090664803e-02 
  2.863176835391e-02 
  2.632981111523e-02 
  2.370553831293e-02 
  2.071350982538e-02 
  1.732105209550e-02 
  2.756025143320e-02 
  2.513309524645e-02 
  2.238534563488e-02 
  1.927986074567e-02 
  2.687816040981e-02 
  2.441076578270e-02 
  2.164436866946e-02 
  2.661351726768e-02 
  2.419338692127e-02 
  2.675699509404e-02 
  5.198886347576e-02 
  5.054625929122e-02 
  4.924958023555e-02 
  4.804599242802e-02 
  4.688985823137e-02 
  4.575196960979e-02 
  5.091724387048e-02 
  4.963317796782e-02 
  4.842273770048e-02 
  4.725372109563e-02 
  4.609862754658e-02 
  4.992198819969e-02 
  4.874532265856e-02 
  4.760236269243e-02 
  4.647027142086e-02 
  4.903265413138e-02 
  4.794397775396e-02 
  4.684358113303e-02 
  4.825739125899e-02 
  4.716556664310e-02 
  4.725850698088e-02 
  4.829016699136e-02 
  4.261421247564e-02 
  4.254768392535e-02 
  4.247588371625e-02 
  4.292891830317e-02 
  4.440190918831e-02 
  4.354394348690e-02 
  4.254006197453e-02 
  4.266072679813e-02 
  4.270126900685e-02 
  4.305539984288e-02 
  4.253117949525e-02 
  4.283037723673e-02 
  4.271584682521e-02 
  4.312143644610e-02 
  4.228845885424e-02 
  4.245611475747e-02 
  4.476507229257e-02 
  4.315534953298e-02 
  4.489237491716e-02 
  4.456417607819e-02 
  5.459524344235e-02 
  5.369885574759e-02 
  5.294679081756e-02 
  5.233274380030e-02 
  5.181787958196e-02 
  5.109691146329e-02 
  5.504525273119e-02 
  5.407483975973e-02 
  5.326861141067e-02 
  5.262329397338e-02 
  5.207336708494e-02 
  5.538909252601e-02 
  5.435452851764e-02 
  5.351137139925e-02 
  5.284201142362e-02 
  5.561345244853e-02 
  5.453593794290e-02 
  5.367207938518e-02 
  5.571759490581e-02 
  5.461862528076e-02 
  5.570145659380e-02 
  5.459461480746e-02 
  5.428236300770e-02 
  5.386034024073e-02 
  5.333007174580e-02 
  5.269943929138e-02 
  5.198785434060e-02 
  5.284015696683e-02 
  5.247107451959e-02 
  5.202320485852e-02 
  5.150350399355e-02 
  5.091729414165e-02 
  5.133450851787e-02 
  5.091371692654e-02 
  5.044120549352e-02 
  4.992178547543e-02 
  5.000324112702e-02 
  4.953995468027e-02 
  4.903269848925e-02 
  4.874153193482e-02 
  4.825710301101e-02 
  4.725948308903e-02 
  4.836379246080e-02 
  4.953313272360e-02 
  5.100470559208e-02 
  5.291131646934e-02 
  5.540194621041e-02 
  5.862020421304e-02 
  4.875681203738e-02 
  5.004564745117e-02 
  5.174479724298e-02 
  5.402119065582e-02 
  5.701689886984e-02 
  4.906607816988e-02 
  5.052211508043e-02 
  5.251956508283e-02 
  5.522345560920e-02 
  4.927534752336e-02 
  5.094199718290e-02 
  5.327170181938e-02 
  4.933477878973e-02 
  5.121184652749e-02 
  4.910236647460e-02 
  5.862046382170e-02 
  5.540200437294e-02 
  5.291141953650e-02 
  5.100476326603e-02 
  4.953321065517e-02 
  4.836366969849e-02 
  5.697990511499e-02 
  5.432829815011e-02 
  5.223011931004e-02 
  5.056135279882e-02 
  4.920307830759e-02 
  5.549661501288e-02 
  5.330252841749e-02 
  5.150478039861e-02 
  5.001034707426e-02 
  5.418969450858e-02 
  5.233531733360e-02 
  5.075512037510e-02 
  5.302912843435e-02 
  5.142013398256e-02 
  5.198638313563e-02 
  6.494945968659e-02 
  6.417065886443e-02 
  6.312904713385e-02 
  6.183684554361e-02 
  6.031818076383e-02 
  5.862281129184e-02 
  6.123546725275e-02 
  6.042259403851e-02 
  5.942302152820e-02 
  5.826378613086e-02 
  5.697966968442e-02 
  5.817862808228e-02 
  5.739275642096e-02 
  5.649171488181e-02 
  5.549694116552e-02 
  5.570596576151e-02 
  5.498324606310e-02 
  5.418940441291e-02 
  5.368578834491e-02 
  5.302906566089e-02 
  5.198510376958e-02 
  5.696697784719e-02 
  5.659121780395e-02 
  5.489965539092e-02 