# vtk DataFile Version 2
NuDG++ 2D simulation
ASCII
DATASET UNSTRUCTURED_GRID

POINTS 7854 double
 -1.656250060000e-01  -2.000000030000e-01  0.0
 -1.725000054000e-01  -1.908888817000e-01  0.0
 -1.793750048000e-01  -1.817777604000e-01  0.0
 -1.862500042000e-01  -1.726666391000e-01  0.0
 -1.931250036000e-01  -1.635555178000e-01  0.0
 -2.000000030000e-01  -1.544443965000e-01  0.0
 -1.725000054000e-01  -2.000000030000e-01  0.0
 -1.793750048000e-01  -1.908888817000e-01  0.0
 -1.862500042000e-01  -1.817777604000e-01  0.0
 -1.931250036000e-01  -1.726666391000e-01  0.0
 -2.000000030000e-01  -1.635555178000e-01  0.0
 -1.793750048000e-01  -2.000000030000e-01  0.0
 -1.862500042000e-01  -1.908888817000e-01  0.0
 -1.931250036000e-01  -1.817777604000e-01  0.0
 -2.000000030000e-01  -1.726666391000e-01  0.0
 -1.862500042000e-01  -2.000000030000e-01  0.0
 -1.931250036000e-01  -1.908888817000e-01  0.0
 -2.000000030000e-01  -1.817777604000e-01  0.0
 -1.931250036000e-01  -2.000000030000e-01  0.0
 -2.000000030000e-01  -1.908888817000e-01  0.0
 -2.000000030000e-01  -2.000000030000e-01  0.0
 -6.428571790000e-02  -1.700000018000e-01  0.0
 -7.080357372400e-02  -1.760000020400e-01  0.0
 -7.732142954800e-02  -1.820000022800e-01  0.0
 -8.383928537200e-02  -1.880000025200e-01  0.0
 -9.035714119600e-02  -1.940000027600e-01  0.0
 -9.687499702000e-02  -2.000000030000e-01  0.0
 -6.392857432000e-02  -1.760000020400e-01  0.0
 -7.044643014400e-02  -1.820000022800e-01  0.0
 -7.696428596800e-02  -1.880000025200e-01  0.0
 -8.348214179200e-02  -1.940000027600e-01  0.0
 -8.999999761600e-02  -2.000000030000e-01  0.0
 -6.357143074000e-02  -1.820000022800e-01  0.0
 -7.008928656400e-02  -1.880000025200e-01  0.0
 -7.660714238800e-02  -1.940000027600e-01  0.0
 -8.312499821200e-02  -2.000000030000e-01  0.0
 -6.321428716000e-02  -1.880000025200e-01  0.0
 -6.973214298400e-02  -1.940000027600e-01  0.0
 -7.624999880800e-02  -2.000000030000e-01  0.0
 -6.285714358000e-02  -1.940000027600e-01  0.0
 -6.937499940400e-02  -2.000000030000e-01  0.0
 -6.250000000000e-02  -2.000000030000e-01  0.0
 -2.000000030000e-01  -1.544443965000e-01  0.0
 -1.900000036000e-01  -1.478412374800e-01  0.0
 -1.800000042000e-01  -1.412380784600e-01  0.0
 -1.700000048000e-01  -1.346349194400e-01  0.0
 -1.600000054000e-01  -1.280317604200e-01  0.0
 -1.500000060000e-01  -1.214286014000e-01  0.0
 -2.000000030000e-01  -1.453332975600e-01  0.0
 -1.900000036000e-01  -1.387301385400e-01  0.0
 -1.800000042000e-01  -1.321269795200e-01  0.0
 -1.700000048000e-01  -1.255238205000e-01  0.0
 -1.600000054000e-01  -1.189206614800e-01  0.0
 -2.000000030000e-01  -1.362221986200e-01  0.0
 -1.900000036000e-01  -1.296190396000e-01  0.0
 -1.800000042000e-01  -1.230158805800e-01  0.0
 -1.700000048000e-01  -1.164127215600e-01  0.0
 -2.000000030000e-01  -1.271110996800e-01  0.0
 -1.900000036000e-01  -1.205079406600e-01  0.0
 -1.800000042000e-01  -1.139047816400e-01  0.0
 -2.000000030000e-01  -1.180000007400e-01  0.0
 -1.900000036000e-01  -1.113968417200e-01  0.0
 -2.000000030000e-01  -1.088889018000e-01  0.0
 -1.500000060000e-01  -1.214286014000e-01  0.0
 -1.600000054000e-01  -1.280317604200e-01  0.0
 -1.700000048000e-01  -1.346349194400e-01  0.0
 -1.800000042000e-01  -1.412380784600e-01  0.0
 -1.900000036000e-01  -1.478412374800e-01  0.0
 -2.000000030000e-01  -1.544443965000e-01  0.0
 -1.500000060000e-01  -1.311428814800e-01  0.0
 -1.600000054000e-01  -1.377460405000e-01  0.0
 -1.700000048000e-01  -1.443491995200e-01  0.0
 -1.800000042000e-01  -1.509523585400e-01  0.0
 -1.900000036000e-01  -1.575555175600e-01  0.0
 -1.500000060000e-01  -1.408571615600e-01  0.0
 -1.600000054000e-01  -1.474603205800e-01  0.0
 -1.700000048000e-01  -1.540634796000e-01  0.0
 -1.800000042000e-01  -1.606666386200e-01  0.0
 -1.500000060000e-01  -1.505714416400e-01  0.0
 -1.600000054000e-01  -1.571746006600e-01  0.0
 -1.700000048000e-01  -1.637777596800e-01  0.0
 -1.500000060000e-01  -1.602857217200e-01  0.0
 -1.600000054000e-01  -1.668888807400e-01  0.0
 -1.500000060000e-01  -1.700000018000e-01  0.0
 -1.500000060000e-01  -7.285714149000e-02  0.0
 -1.600000054000e-01  -8.006349355200e-02  0.0
 -1.700000048000e-01  -8.726984561400e-02  0.0
 -1.800000042000e-01  -9.447619767600e-02  0.0
 -1.900000036000e-01  -1.016825497380e-01  0.0
 -2.000000030000e-01  -1.088889018000e-01  0.0
 -1.500000060000e-01  -8.257143347200e-02  0.0
 -1.600000054000e-01  -8.977778553400e-02  0.0
 -1.700000048000e-01  -9.698413759600e-02  0.0
 -1.800000042000e-01  -1.041904896580e-01  0.0
 -1.900000036000e-01  -1.113968417200e-01  0.0
 -1.500000060000e-01  -9.228572545400e-02  0.0
 -1.600000054000e-01  -9.949207751600e-02  0.0
 -1.700000048000e-01  -1.066984295780e-01  0.0
 -1.800000042000e-01  -1.139047816400e-01  0.0
 -1.500000060000e-01  -1.020000174360e-01  0.0
 -1.600000054000e-01  -1.092063694980e-01  0.0
 -1.700000048000e-01  -1.164127215600e-01  0.0
 -1.500000060000e-01  -1.117143094180e-01  0.0
 -1.600000054000e-01  -1.189206614800e-01  0.0
 -1.500000060000e-01  -1.214286014000e-01  0.0
  1.832975030000e+00  -4.625000060000e-02  0.0
  1.841380024000e+00  -7.700000108000e-02  0.0
  1.849785018000e+00  -1.077500015600e-01  0.0
  1.858190012000e+00  -1.385000020400e-01  0.0
  1.866595006000e+00  -1.692500025200e-01  0.0
  1.875000000000e+00  -2.000000030000e-01  0.0
  1.866380024000e+00  -5.649999976400e-02  0.0
  1.874785018000e+00  -8.725000024400e-02  0.0
  1.883190012000e+00  -1.180000007240e-01  0.0
  1.891595006000e+00  -1.487500012040e-01  0.0
  1.900000000000e+00  -1.795000016840e-01  0.0
  1.899785018000e+00  -6.674999892800e-02  0.0
  1.908190012000e+00  -9.749999940800e-02  0.0
  1.916595006000e+00  -1.282499998880e-01  0.0
  1.925000000000e+00  -1.590000003680e-01  0.0
  1.933190012000e+00  -7.699999809200e-02  0.0
  1.941595006000e+00  -1.077499985720e-01  0.0
  1.950000000000e+00  -1.384999990520e-01  0.0
  1.966595006000e+00  -8.724999725600e-02  0.0
  1.975000000000e+00  -1.179999977360e-01  0.0
  2.000000000000e+00  -9.749999642000e-02  0.0
 -1.500000060000e-01  -1.700000018000e-01  0.0
 -1.444000050800e-01  -1.630000025200e-01  0.0
 -1.388000041600e-01  -1.560000032400e-01  0.0
 -1.332000032400e-01  -1.490000039600e-01  0.0
 -1.276000023200e-01  -1.420000046800e-01  0.0
 -1.220000014000e-01  -1.350000054000e-01  0.0
 -1.500000060000e-01  -1.602857217200e-01  0.0
 -1.444000050800e-01  -1.532857224400e-01  0.0
 -1.388000041600e-01  -1.462857231600e-01  0.0
 -1.332000032400e-01  -1.392857238800e-01  0.0
 -1.276000023200e-01  -1.322857246000e-01  0.0
 -1.500000060000e-01  -1.505714416400e-01  0.0
 -1.444000050800e-01  -1.435714423600e-01  0.0
 -1.388000041600e-01  -1.365714430800e-01  0.0
 -1.332000032400e-01  -1.295714438000e-01  0.0
 -1.500000060000e-01  -1.408571615600e-01  0.0
 -1.444000050800e-01  -1.338571622800e-01  0.0
 -1.388000041600e-01  -1.268571630000e-01  0.0
 -1.500000060000e-01  -1.311428814800e-01  0.0
 -1.444000050800e-01  -1.241428822000e-01  0.0
 -1.500000060000e-01  -1.214286014000e-01  0.0
  2.849999964000e-01  -2.333333530000e-02  0.0
  2.844999968800e-01  -4.666666836000e-02  0.0
  2.839999973600e-01  -7.000000142000e-02  0.0
  2.834999978400e-01  -9.333333448000e-02  0.0
  2.829999983200e-01  -1.166666675400e-01  0.0
  2.824999988000e-01  -1.400000006000e-01  0.0
  2.979999959200e-01  -3.266666830000e-02  0.0
  2.974999964000e-01  -5.600000136000e-02  0.0
  2.969999968800e-01  -7.933333442000e-02  0.0
  2.964999973600e-01  -1.026666674800e-01  0.0
  2.959999978400e-01  -1.260000005400e-01  0.0
  3.109999954400e-01  -4.200000130000e-02  0.0
  3.104999959200e-01  -6.533333436000e-02  0.0
  3.099999964000e-01  -8.866666742000e-02  0.0
  3.094999968800e-01  -1.120000004800e-01  0.0
  3.239999949600e-01  -5.133333430000e-02  0.0
  3.234999954400e-01  -7.466666736000e-02  0.0
  3.229999959200e-01  -9.800000042000e-02  0.0
  3.369999944800e-01  -6.066666730000e-02  0.0
  3.364999949600e-01  -8.400000036000e-02  0.0
  3.499999940000e-01  -7.000000030000e-02  0.0
 -1.071429029000e-01  -1.700000018000e-01  0.0
 -9.857146590000e-02  -1.700000018000e-01  0.0
 -9.000002890000e-02  -1.700000018000e-01  0.0
 -8.142859190000e-02  -1.700000018000e-01  0.0
 -7.285715490000e-02  -1.700000018000e-01  0.0
 -6.428571790000e-02  -1.700000018000e-01  0.0
 -1.037143230360e-01  -1.630000025200e-01  0.0
 -9.514288603600e-02  -1.630000025200e-01  0.0
 -8.657144903600e-02  -1.630000025200e-01  0.0
 -7.800001203600e-02  -1.630000025200e-01  0.0
 -6.942857503600e-02  -1.630000025200e-01  0.0
 -1.002857431720e-01  -1.560000032400e-01  0.0
 -9.171430617200e-02  -1.560000032400e-01  0.0
 -8.314286917200e-02  -1.560000032400e-01  0.0
 -7.457143217200e-02  -1.560000032400e-01  0.0
 -9.685716330800e-02  -1.490000039600e-01  0.0
 -8.828572630800e-02  -1.490000039600e-01  0.0
 -7.971428930800e-02  -1.490000039600e-01  0.0
 -9.342858344400e-02  -1.420000046800e-01  0.0
 -8.485714644400e-02  -1.420000046800e-01  0.0
 -9.000000358000e-02  -1.350000054000e-01  0.0
 -1.312499940000e-01  -2.000000030000e-01  0.0
 -1.264285757800e-01  -1.940000027600e-01  0.0
 -1.216071575600e-01  -1.880000025200e-01  0.0
 -1.167857393400e-01  -1.820000022800e-01  0.0
 -1.119643211200e-01  -1.760000020400e-01  0.0
 -1.071429029000e-01  -1.700000018000e-01  0.0
 -1.349999964000e-01  -1.940000027600e-01  0.0
 -1.301785781800e-01  -1.880000025200e-01  0.0
 -1.253571599600e-01  -1.820000022800e-01  0.0
 -1.205357417400e-01  -1.760000020400e-01  0.0
 -1.157143235200e-01  -1.700000018000e-01  0.0
 -1.387499988000e-01  -1.880000025200e-01  0.0
 -1.339285805800e-01  -1.820000022800e-01  0.0
 -1.291071623600e-01  -1.760000020400e-01  0.0
 -1.242857441400e-01  -1.700000018000e-01  0.0
 -1.425000012000e-01  -1.820000022800e-01  0.0
 -1.376785829800e-01  -1.760000020400e-01  0.0
 -1.328571647600e-01  -1.700000018000e-01  0.0
 -1.462500036000e-01  -1.760000020400e-01  0.0
 -1.414285853800e-01  -1.700000018000e-01  0.0
 -1.500000060000e-01  -1.700000018000e-01  0.0
[...]
POINT_DATA 7854
SCALARS field1 double 1
LOOKUP_TABLE default
 -5.443666392749e-07 
  1.155288307136e-02 
  1.320729319582e-02 
  1.340001655737e-02 
  1.474219132564e-02 
  1.729613354065e-02 
 -3.960645067275e-06 
  9.576659604893e-03 
  1.082343824940e-02 
  1.168285256259e-02 
  1.417562140123e-02 
  1.494864769648e-06 
  7.246264201920e-03 
  8.595957827140e-03 
  1.089700282596e-02 
  1.101177919803e-05 
  4.958565825895e-03 
  7.441273853199e-03 
 -2.570125912267e-06 
  3.800054664256e-03 
  3.371398924392e-06 
  3.315223980151e-02 
  3.219649419865e-02 
  3.044517048124e-02 
  2.652140157170e-02 
  1.773396795441e-02 
 -9.445999922701e-07 
  3.276166671734e-02 
  3.102020260184e-02 
  2.707091377119e-02 
  1.813149227671e-02 
 -3.122267767697e-07 
  3.155807983925e-02 
  2.758297536691e-02 
  1.850718544112e-02 
 -3.610191807951e-07 
  2.806123905706e-02 
  1.885852279423e-02 
 -3.510343467375e-07 
  1.918419325787e-02 
 -2.284599403088e-07 
 -4.792959604466e-07 
  1.729365716815e-02 
  1.998320967865e-02 
  2.276911107848e-02 
  2.509208596283e-02 
  2.694169896516e-02 
  2.844613986744e-02 
  2.023130033190e-02 
  2.258250618281e-02 
  2.489797262805e-02 
  2.681328415673e-02 
  2.834571959629e-02 
  2.299926720988e-02 
  2.504763329305e-02 
  2.692814229387e-02 
  2.846445070905e-02 
  2.559219952804e-02 
  2.736057575468e-02 
  2.884933803724e-02 
  2.801304037124e-02 
  2.952270797518e-02 
  3.026132048431e-02 
  2.844635499186e-02 
  2.694166316668e-02 
  2.509190762357e-02 
  2.276894471068e-02 
  1.998368507850e-02 
  1.729503567056e-02 
  2.722613085531e-02 
  2.543418148262e-02 
  2.321768865725e-02 
  2.042020104089e-02 
  1.710935403007e-02 
  2.600756882916e-02 
  2.393773277346e-02 
  2.134114668388e-02 
  1.805929124707e-02 
  2.483618622251e-02 
  2.249590881957e-02 
  1.953103703849e-02 
  2.376154253043e-02 
  2.116824060869e-02 
  2.278825351591e-02 
  3.317823509827e-02 
  3.320958735123e-02 
  3.301420866772e-02 
  3.251811119664e-02 
  3.164057983536e-02 
  3.026268785835e-02 
  3.244082469780e-02 
  3.217585802693e-02 
  3.163479874835e-02 
  3.076252290894e-02 
  2.952210395275e-02 
  3.160438051412e-02 
  3.102665827391e-02 
  3.011740289351e-02 
  2.884903591663e-02 
  3.066607778842e-02 
  2.975270273780e-02 
  2.846410421379e-02 
  2.961119877875e-02 
  2.834569240969e-02 
  2.844575006168e-02 
  3.377057915295e-02 
  2.858207499364e-02 
  2.928924958457e-02 
  2.874358275837e-02 
  3.168081065367e-02 
  6.532374152816e-04 
  2.995887261129e-02 
  3.020987920836e-02 
  2.938324881557e-02 
  2.918858254337e-02 
  2.847194224006e-02 
  2.991960620578e-02 
  3.012465725878e-02 
  2.915578963800e-02 
  2.958557251137e-02 
  2.975794152230e-02 
  2.968902787370e-02 
  2.888451257922e-02 
  3.025097398443e-02 
  2.859923940127e-02 
  3.104264805216e-02 
  2.278801633643e-02 
  2.439056223302e-02 
  2.580610271476e-02 
  2.706549681747e-02 
  2.819502133669e-02 
  2.920161527769e-02 
  2.376091735984e-02 
  2.529649627742e-02 
  2.665629738673e-02 
  2.785955348687e-02 
  2.891675185648e-02 
  2.483650043451e-02 
  2.630020285646e-02 
  2.757725720536e-02 
  2.868892794963e-02 
  2.600794928416e-02 
  2.736076051343e-02 
  2.852596024535e-02 
  2.722584768952e-02 
  2.843909132864e-02 
  2.844652248663e-02 
  3.037760621784e-02 
  2.969458512116e-02 
  3.001067469225e-02 
  3.013230951502e-02 
  3.008623148732e-02 
  3.154934327056e-02 
  2.991316536139e-02 
  2.985301507277e-02 
  3.005926231863e-02 
  3.006678356837e-02 
  3.021683416820e-02 
  2.990786225164e-02 
  3.000613696202e-02 
  3.006563440302e-02 
  3.005166767522e-02 
  3.008301388755e-02 
  3.006875413877e-02 
  3.003139962756e-02 
  3.005852671696e-02 
  3.016584489781e-02 
  2.966521221233e-02 
  2.899805959074e-02 
  2.995295762752e-02 
  3.083774826102e-02 
  3.166641471198e-02 
  3.243860786814e-02 
  3.315535662229e-02 
  2.966407253152e-02 
  3.056288334124e-02 
  3.141047598490e-02 
  3.220937173151e-02 
  3.295949471063e-02 
  3.026900633332e-02 
  3.112093672883e-02 
  3.193473774427e-02 
  3.271345980966e-02 
  3.086282397824e-02 
  3.167526736040e-02 
  3.246697797952e-02 
  3.144184034416e-02 
  3.222798455811e-02 
  3.200866394677e-02 
 -1.733788823524e-06 
  1.510924551781e-02 
  2.275960357587e-02 
  2.630978111986e-02 
  2.800252527274e-02 
  2.899829612202e-02 
  1.430035554674e-02 
  2.165962114816e-02 
  2.516771881138e-02 
  2.690370967975e-02 
  2.798179829274e-02 
  2.042068898375e-02 
  2.389545953994e-02 
  2.569873860743e-02 
  2.686794354750e-02 
  2.246166482512e-02 
  2.435915061052e-02 
  2.564688820329e-02 
  2.285440599182e-02 
  2.429640553834e-02 
  2.278644332135e-02 
  2.920196207568e-02 
  2.975725117596e-02 
  3.031236965145e-02 
  3.087185569176e-02 
  3.143520812823e-02 
  3.200816276500e-02 
  2.976164728783e-02 
  3.025295408995e-02 
  3.075731186052e-02 
  3.127713990230e-02 
  3.181301278679e-02 
  3.027391671783e-02 
  3.070640501747e-02 
  3.116324763071e-02 
  3.164778643243e-02 
  3.073073114337e-02 
  3.110622721856e-02 
  3.151896982152e-02 
  3.111941495888e-02 
  3.143990330869e-02 
  3.142011180967e-02 
  3.200798228801e-02 
  3.143532414836e-02 
  3.087185436752e-02 
  3.031236767220e-02 
  2.975730326078e-02 
  2.920209813421e-02 
  3.144206265345e-02 
  3.085134914361e-02 
  3.025457857079e-02 
  2.965080772323e-02 
  2.903544487995e-02 
  3.086255866796e-02 
  3.023914265144e-02 
  2.959962026483e-02 
  2.894175504457e-02 
  3.026907492920e-02 
  2.960668186399e-02 
  2.891768298790e-02 
  2.966407088798e-02 
  2.895520363538e-02 
  2.899868505184e-02 
  3.385073921892e-02 
  3.317112015341e-02 
  3.261807223609e-02 
  3.215854477874e-02 
  3.176816121831e-02 
  3.142023564065e-02 
  3.367669715053e-02 
  3.300498273535e-02 
  3.242294058509e-02 
  3.190722030867e-02 
  3.143982643023e-02 
  3.337131837745e-02 
  3.270039734763e-02 
  3.208850543878e-02 
  3.151899610773e-02 
  3.297251339838e-02 
  3.229396989237e-02 
  3.164781408159e-02 
  3.250972442147e-02 
  3.181294716066e-02 
  3.200867056200e-02 
  2.920193778430e-02 
  2.976172568821e-02 
  3.027388857074e-02 
  3.073078327593e-02 
  3.111957825016e-02 
  3.141975897964e-02 
  2.891680892447e-02 
  2.953323319047e-02 
  3.009248502465e-02 
  3.058746803454e-02 
  3.100619599404e-02 
  2.868887924231e-02 
  2.936568676440e-02 
  2.997967187042e-02 
  3.051992931169e-02 
  2.852566379489e-02 
  2.927123791572e-02 
  2.994660111373e-02 
  2.843906910308e-02 
  2.926200823443e-02 
  2.844628356151e-02 
  3.385036986666e-02 
  3.367669328955e-02 
  3.337126674577e-02 
  3.297253991516e-02 
  3.250956593409e-02 
  3.200952716452e-02 
  3.440414336321e-02 
  3.411032912340e-02 
  3.372183407846e-02 
  3.327269414637e-02 
  3.278379333736e-02 
  3.493798396405e-02 
  3.452807453383e-02 
  3.406328566738e-02 
  3.356991689193e-02 
  3.543003785315e-02 
  3.491608886752e-02 
  3.438609307396e-02 
  3.586837814192e-02 
  3.526474096482e-02 
  3.623830514931e-02 
  2.899867336184e-02 
  2.895546440338e-02 
  2.891791619415e-02 
  2.894184526550e-02 
  2.903521907238e-02 
  2.920211178983e-02 
  2.798204690582e-02 
  2.794881898347e-02 
  2.794604784123e-02 
  2.802638418856e-02 
  2.819508790535e-02 
  2.686805860462e-02 
  2.686386241694e-02 
  2.691216913191e-02 
  2.706568369023e-02 
  2.564716790077e-02 
  2.568403726020e-02 
  2.580563699887e-02 
  2.429642308862e-02 
  2.439051019552e-02 
  2.278735789047e-02 
 -2.829837568302e-07 
 -3.600030939421e-07 
 -2.854801781827e-07 
 -4.156191741954e-07 
 -3.418273962553e-07 
 -1.189548821893e-06 
  2.094206328985e-02 
  2.089548467752e-02 
  2.075141032486e-02 
  2.052754297680e-02 
  2.025079694618e-02 
  3.065668130920e-02 
  3.056777031501e-02 
  3.033139315010e-02 
  2.998294451120e-02 
  3.451222995250e-02 
  3.436924522134e-02 
  3.407148144661e-02 
  3.584867126076e-02 
  3.564460742062e-02 
  3.628636702410e-02 
  3.317647836904e-02 
  3.244003769438e-02 
  3.160414067634e-02 
  3.066627636548e-02 
  2.961111570231e-02 
  2.844613619134e-02 
  3.242818382208e-02 
  3.179303926792e-02 
  3.105943271703e-02 
  3.021561981523e-02 
  2.926199886537e-02 
  3.189781511066e-02 
  3.135472111875e-02 
  3.070162177064e-02 
  2.994665147765e-02 
  3.156216658519e-02 
  3.109545529292e-02 
  3.051998607726e-02 
  3.141112637640e-02 
  3.100623504600e-02 
  3.141936321608e-02 
  3.890969193886e-02 
  3.797995724993e-02 
  3.654907726821e-02 
  3.520691499618e-02 
  3.408134231177e-02 
  3.317816336650e-02 
  3.921903141401e-02 
  3.766453308015e-02 
  3.615874271609e-02 
  3.487568576614e-02 
  3.378293613215e-02 
  3.861075868058e-02 
  3.695585518083e-02 
  3.550244990749e-02 
  3.424373671003e-02 
  3.761543899053e-02 
  3.600610309147e-02 
  3.457987707697e-02 
  3.640873004570e-02 
  3.483958434570e-02 
  3.506950861676e-02 
  3.890769544719e-02 
  3.752425112845e-02 
  3.596781644541e-02 
  3.423936757839e-02 
  3.233727623196e-02 
  3.026158409188e-02 
  3.798047814802e-02 
  3.664168365185e-02 
  3.513380203466e-02 
  3.346963904907e-02 
  3.164040170731e-02 
  3.654876237431e-02 
  3.534452103376e-02 
  3.399849888013e-02 
  3.251760697448e-02 
  3.520732484366e-02 
  3.417509411686e-02 
  3.301497276626e-02 
  3.408053363359e-02 
  3.320914020315e-02 
  3.318075999062e-02 
  3.890812626243e-02 
  3.921898832283e-02 
  3.861000517444e-02 
  3.761579459560e-02 
  3.640821750731e-02 
  3.507201771025e-02 
  4.011864980977e-02 
  4.021476788161e-02 
  3.933481184306e-02 
  3.810911420307e-02 
  3.671621337463e-02 
  4.115573904434e-02 
  4.104546192183e-02 
  3.992924322805e-02 
  3.849571091798e-02 
  4.202000945251e-02 
  4.172187356628e-02 
  4.039304195521e-02 
  4.271257610442e-02 
  4.222954669385e-02 
  4.323006966960e-02 
  3.506708556406e-02 
  3.483869054167e-02 
  3.457912313116e-02 
  3.424372947215e-02 
  3.378280178132e-02 
  3.317558747594e-02 
  3.366815409298e-02 
  3.358273221475e-02 
  3.346832848732e-02 
  3.328501192487e-02 
  3.298202919665e-02 
  3.235440569436e-02 
  3.243293027729e-02 
  3.248744565965e-02 
  3.247456087518e-02 
  3.109941394823e-02 
  3.138124003486e-02 
  3.164235237592e-02 
  2.990457246843e-02 
  3.044365506689e-02 
  2.877552942416e-02 
  2.782625778822e-02 
  2.952161765109e-02 
  3.107594979680e-02 
  3.250904832716e-02 
  3.383008722491e-02 
  3.506608108221e-02 
  2.771601092321e-02 
  2.947256948092e-02 
  3.102877420512e-02 
  3.241963221359e-02 
  3.366820311186e-02 
  2.776941623228e-02 
  2.952846210698e-02 
  3.103970912125e-02 
  3.235414610755e-02 
  2.797813459797e-02 
  2.967770219888e-02 
  3.109972441595e-02 
  2.832298502334e-02 
  2.990446773983e-02 
  2.877660634694e-02 
  3.506902942476e-02 
  3.520517812327e-02 
  3.530117362044e-02 
  3.534957957412e-02 
  3.537218705084e-02 
  3.538789265956e-02 
  3.671687446358e-02 
  3.694982535211e-02 
  3.708053573358e-02 
  3.713661964646e-02 
  3.711620527891e-02 
  3.849503939612e-02 
  3.877689845495e-02 
  3.894158747415e-02 
  3.899374297117e-02 
  4.039398433801e-02 
  4.072865215189e-02 
  4.090875720753e-02 
  4.222904844613e-02 
  4.259395185035e-02 
  4.323229697197e-02 
  3.317412436850e-02 
  3.258914071002e-02 
  3.207396549394e-02 
  3.164470755525e-02 
  3.132137456873e-02 
  3.117065006666e-02 
  3.298232694125e-02 
  3.226324981217e-02 
  3.161522379094e-02 
  3.104647447615e-02 
  3.059405816424e-02 
  3.247426570041e-02 
  3.161049461352e-02 
  3.079332827217e-02 
  3.003513869949e-02 
  3.164243439745e-02 
  3.058494308440e-02 
  2.952349620895e-02 
  3.044352490777e-02 
  2.909613103019e-02 
  2.877675538424e-02 
  3.150333224875e-02 
  3.030043133643e-02 
  2.996870635844e-02 
  2.999507398330e-02 
  3.043257473856e-02 
  3.147085998409e-02 
  2.994876668318e-02 
  3.014065503447e-02 
  3.015320053401e-02 
  3.035354014727e-02 
  3.062643671768e-02 
  2.994289650318e-02 
  2.974095066071e-02 
  2.964751309508e-02 
  2.918337306819e-02 
  2.987915590388e-02 
  3.005216440753e-02 
  2.970113531938e-02 
  2.623014202079e-02 
  2.946506629391e-02 
  3.176854807066e-04 
  2.731965777560e-02 
  2.858566238056e-02 
  2.952022014918e-02 
  3.023045501633e-02 
  3.076641075194e-02 
  3.117377067649e-02 
  2.865681839508e-02 
  2.961808304349e-02 
  3.032440062438e-02 
  3.085466344579e-02 
  3.124131902194e-02 
  3.008618498679e-02 
  3.072327103118e-02 
  3.118251619047e-02 
  3.151869709152e-02 
  3.156141271844e-02 
  3.186537839467e-02 
  3.206822598053e-02 
  3.303189221974e-02 
  3.300690385072e-02 
  3.444916308201e-02 
  3.117031357966e-02 
  3.132142084022e-02 
  3.164462064546e-02 
  3.207409639106e-02 
  3.258907404032e-02 
  3.317459102168e-02 
  3.160917584273e-02 
  3.162679256187e-02 
  3.179827141285e-02 
  3.207436873188e-02 
  3.242824498461e-02 
  3.182817291728e-02 
  3.172954483589e-02 
  3.176735269325e-02 
  3.189728712886e-02 
  3.185351536658e-02 
  3.165251916966e-02 
  3.156235874345e-02 
  3.171367981635e-02 
  3.141094094006e-02 
  3.142000248942e-02 
  1.189784303151e-02 
  1.445390936329e-02 
  1.664044714810e-02 
  1.851724342602e-02 
  2.014503433148e-02 
  2.158324219756e-02 
  1.295950546341e-02 
  1.540082178236e-02 
  1.747411487052e-02 
  1.924455246055e-02 
  2.076620804592e-02 
  1.430122459430e-02 
  1.663164253976e-02 
  1.854795875650e-02 
  2.016812035263e-02 
  1.595694292470e-02 
  1.811882739761e-02 
  1.983788972126e-02 
  1.791827279254e-02 
  1.983532165388e-02 
  2.012315028909e-02 
  2.158142266739e-02 
  2.354052535695e-02 
  2.517715302574e-02 
  2.655639145747e-02 
  2.774264023627e-02 
  2.877903941061e-02 
  2.234617010079e-02 
  2.415426422733e-02 
  2.565183038259e-02 
  2.691855383302e-02 
  2.800593827305e-02 
  2.335693825101e-02 
  2.493993911947e-02 
  2.625885599427e-02 
  2.738266252808e-02 
  2.456292661938e-02 
  2.587322508286e-02 
  2.697810545888e-02 
  2.590244022888e-02 
  2.691571905295e-02 
  2.732089413461e-02 
  2.731820620298e-02 
  2.649294717261e-02 
  2.545407000098e-02 
  2.415783026951e-02 
  2.245380786250e-02 
  2.012364371636e-02 
  2.590171018418e-02 
  2.482110472360e-02 
  2.351391361568e-02 
  2.189500359171e-02 
  1.983535277304e-02 
  2.456282160827e-02 
  2.326821645742e-02 
  2.171801853390e-02 
  1.983776096384e-02 
  2.335660992960e-02 
  2.189762564443e-02 
  2.016793230847e-02 
  2.234554816549e-02 
  2.076634099787e-02 
  2.158302891969e-02 
  2.158110530043e-02 
  2.241122937845e-02 
  2.361422185271e-02 
  2.498890480654e-02 
  2.641886574473e-02 
  2.782724810575e-02 
  2.354073848436e-02 
  2.425652541243e-02 
  2.527501292252e-02 
  2.646122516509e-02 
  2.771591998659e-02 
  2.517731769812e-02 
  2.581415600818e-02 
  2.671479873095e-02 
  2.776923863136e-02 
  2.655616992818e-02 
  2.715470217178e-02 
  2.797818860433e-02 
  2.774283772105e-02 
  2.832325210611e-02 
  2.877764144590e-02 
  3.385040859951e-02 
  3.412266356261e-02 
  3.434014644130e-02 
  3.449196884587e-02 
  3.455108409099e-02 
  3.444981973302e-02 
  3.335160412536e-02 
  3.345989659945e-02 
  3.346375005294e-02 
  3.332895249076e-02 
  3.300679776349e-02 
  3.280911290599e-02 
  3.273648089236e-02 
  3.250713340914e-02 
  3.206840519291e-02 
  3.224712179152e-02 
  3.198584941394e-02 
  3.151854998964e-02 
  3.169033853368e-02 
  3.124140212419e-02 
  3.117326091987e-02 
  2.732200980969e-02 
  2.691545265189e-02 
  2.697837434021e-02 
  2.738252897063e-02 
  2.800608327716e-02 
  2.877843861429e-02 
  2.858537514067e-02 
  2.821588585478e-02 
  2.824816237833e-02 
  2.856805680925e-02 
  2.909672641804e-02 
  2.952054774084e-02 
  2.922065796862e-02 
  2.924667652826e-02 
  2.952412315921e-02 
  3.023034158760e-02 
  2.999630809905e-02 
  3.003576040590e-02 
  3.076661983255e-02 
  3.059440918316e-02 
  3.117220267150e-02 
  3.385109009858e-02 
  3.335135119901e-02 
  3.280890782707e-02 
  3.224670637752e-02 
  3.169002448120e-02 
  3.117137031621e-02 
  3.317108511796e-02 
  3.278310645172e-02 
  3.238073490696e-02 
  3.198210909903e-02 
  3.160904494883e-02 
  3.261818965040e-02 
  3.234213874414e-02 
  3.207435479970e-02 
  3.182836679040e-02 
  3.215845831529e-02 
  3.199411659926e-02 
  3.185354343388e-02 
  3.176828751463e-02 
  3.171402587173e-02 
  3.141982886855e-02 
  2.158207215297e-02 
  2.014539608888e-02 
  1.851711606309e-02 
  1.664014761489e-02 
  1.445397820606e-02 
  1.189849759168e-02 
  2.061555939562e-02 
  1.905237098676e-02 
  1.726353411269e-02 
  1.520762016983e-02 
  1.284781538570e-02 
  1.988757950308e-02 
  1.823398639918e-02 
  1.635194608468e-02 
  1.420407704617e-02 
  1.942412701587e-02 
  1.773951492792e-02 
  1.583962511341e-02 
  1.924448341899e-02 
  1.759092352529e-02 
  1.934072298758e-02 
  3.623888869854e-02 
  3.526466388679e-02 
  3.438627910278e-02 
  3.356978177919e-02 
  3.278389002250e-02 
  3.200913609284e-02 
  3.549881189233e-02 
  3.462897631359e-02 
  3.380884765432e-02 
  3.301467673983e-02 
  3.222829091944e-02 
  3.481244215528e-02 
  3.401478964158e-02 
  3.323769304653e-02 
  3.246700279244e-02 
  3.419750921473e-02 
  3.345759670413e-02 
  3.271374230643e-02 
  3.367121050517e-02 
  3.295965889332e-02 
  3.315735526028e-02 
  3.367105953218e-02 
  2.988931244727e-02 
  2.987681177621e-02 
  2.974484056790e-02 
  3.018031669296e-02 
  3.118621888200e-02 
  3.021048735817e-02 
  2.968231430733e-02 
  2.978667097002e-02 
  2.977918820521e-02 
  3.043156401945e-02 
  2.966715878297e-02 
  2.988332362266e-02 
  2.980958886989e-02 
  3.019342726333e-02 
  2.966076376346e-02 
  2.963342886180e-02 
  3.056914676296e-02 
  3.012502158099e-02 
  3.093594419016e-02 
  3.084928899406e-02 
  3.796218087456e-02 
  3.734751800905e-02 
  3.683131913145e-02 
  3.641169944014e-02 
  3.608429013690e-02 
  3.576610111679e-02 
  3.826194779815e-02 
  3.759716579614e-02 
  3.704555393448e-02 
  3.660663531493e-02 
  3.626315988785e-02 
  3.848984602883e-02 
  3.778261807266e-02 
  3.720727851149e-02 
  3.675346732812e-02 
  3.863705448522e-02 
  3.790213628720e-02 
  3.731397689710e-02 
  3.870408546547e-02 
  3.795629970083e-02 
  3.868951201774e-02 
  3.796169197278e-02 
  3.775745272702e-02 
  3.747966688730e-02 
  3.712933239879e-02 
  3.671133918970e-02 
  3.623793146326e-02 
  3.677216524089e-02 
  3.652823943924e-02 
  3.623174592418e-02 
  3.588719500711e-02 
  3.549886501988e-02 
  3.574889827062e-02 
  3.547049047300e-02 
  3.515719613323e-02 
  3.481224831890e-02 
  3.484379444430e-02 
  3.453481147162e-02 
  3.419757729877e-02 
  3.401019167227e-02 
  3.367096584406e-02 
  3.315819389261e-02 
  3.384987606398e-02 
  3.463886533679e-02 
  3.563185321938e-02 
  3.692051914242e-02 
  3.861211061085e-02 
  4.083814891515e-02 
  3.412251537488e-02 
  3.499322105088e-02 
  3.614223926542e-02 
  3.769039436754e-02 
  3.977009935228e-02 
  3.433985142331e-02 
  3.532544829125e-02 
  3.668582673044e-02 
  3.857264264332e-02 
  3.449181288988e-02 
  3.562893724707e-02 
  3.726417477340e-02 
  3.455114028632e-02 
  3.587676000338e-02 
  3.444878425301e-02 
  4.083824165785e-02 
  3.861218749061e-02 
  3.692058559955e-02 
  3.563192104246e-02 
  3.463893004462e-02 
  3.384984498116e-02 
  3.965939299551e-02 
  3.786369208274e-02 
  3.644740605879e-02 
  3.532106236720e-02 
  3.440380332708e-02 
  3.863897189565e-02 
  3.715907013972e-02 
  3.594615500866e-02 
  3.493756643053e-02 
  3.774557842908e-02 
  3.649538660223e-02 
  3.542951005420e-02 
  3.695284056319e-02 
  3.586773907515e-02 
  3.623713760094e-02 
  4.505605619156e-02 
  4.454654846852e-02 
  4.385908336232e-02 
  4.299973416992e-02 
  4.198204268149e-02 
  4.084023936793e-02 
  4.249435090052e-02 
  4.195605562620e-02 
  4.129087974483e-02 
  4.051710953342e-02 
  3.965920948851e-02 
  4.042445248004e-02 
  3.990251350009e-02 
  3.930253653776e-02 
  3.863928503470e-02 
  3.875444293497e-02 
  3.827401136233e-02 
  3.774534034566e-02 
  3.738980504415e-02 
  3.695283949407e-02 
  3.623597562265e-02 
  4.180005110729e-02 
  4.077043953073e-02 
  3.903336345330e-02 