# vtk DataFile Version 2
NuDG++ 2D simulation
ASCII
DATASET UNSTRUCTURED_GRID

POINTS 7854 double
 -1.656250060000e-01  -2.000000030000e-01  0.0
 -1.725000054000e-01  -1.908888817000e-01  0.0
 -1.793750048000e-01  -1.817777604000e-01  0.0
 -1.862500042000e-01  -1.726666391000e-01  0.0
 -1.931250036000e-01  -1.635555178000e-01  0.0
 -2.000000030000e-01  -1.544443965000e-01  0.0
 -1.725000054000e-01  -2.000000030000e-01  0.0
 -1.793750048000e-01  -1.908888817000e-01  0.0
 -1.862500042000e-01  -1.817777604000e-01  0.0
 -1.931250036000e-01  -1.726666391000e-01  0.0
 -2.000000030000e-01  -1.635555178000e-01  0.0
 -1.793750048000e-01  -2.000000030000e-01  0.0
 -1.862500042000e-01  -1.908888817000e-01  0.0
 -1.931250036000e-01  -1.817777604000e-01  0.0
 -2.000000030000e-01  -1.726666391000e-01  0.0
 -1.862500042000e-01  -2.000000030000e-01  0.0
 -1.931250036000e-01  -1.908888817000e-01  0.0
 -2.000000030000e-01  -1.817777604000e-01  0.0
 -1.931250036000e-01  -2.000000030000e-01  0.0
 -2.000000030000e-01  -1.908888817000e-01  0.0
 -2.000000030000e-01  -2.000000030000e-01  0.0
 -6.428571790000e-02  -1.700000018000e-01  0.0
 -7.080357372400e-02  -1.760000020400e-01  0.0
 -7.732142954800e-02  -1.820000022800e-01  0.0
 -8.383928537200e-02  -1.880000025200e-01  0.0
 -9.035714119600e-02  -1.940000027600e-01  0.0
 -9.687499702000e-02  -2.000000030000e-01  0.0
 -6.392857432000e-02  -1.760000020400e-01  0.0
 -7.044643014400e-02  -1.820000022800e-01  0.0
 -7.696428596800e-02  -1.880000025200e-01  0.0
 -8.348214179200e-02  -1.940000027600e-01  0.0
 -8.999999761600e-02  -2.000000030000e-01  0.0
 -6.357143074000e-02  -1.820000022800e-01  0.0
 -7.008928656400e-02  -1.880000025200e-01  0.0
 -7.660714238800e-02  -1.940000027600e-01  0.0
 -8.312499821200e-02  -2.000000030000e-01  0.0
 -6.321428716000e-02  -1.880000025200e-01  0.0
 -6.973214298400e-02  -1.940000027600e-01  0.0
 -7.624999880800e-02  -2.000000030000e-01  0.0
 -6.285714358000e-02  -1.940000027600e-01  0.0
 -6.937499940400e-02  -2.000000030000e-01  0.0
 -6.250000000000e-02  -2.000000030000e-01  0.0
 -2.000000030000e-01  -1.544443965000e-01  0.0
 -1.900000036000e-01  -1.478412374800e-01  0.0
 -1.800000042000e-01  -1.412380784600e-01  0.0
 -1.700000048000e-01  -1.346349194400e-01  0.0
 -1.600000054000e-01  -1.280317604200e-01  0.0
 -1.500000060000e-01  -1.214286014000e-01  0.0
 -2.000000030000e-01  -1.453332975600e-01  0.0
 -1.900000036000e-01  -1.387301385400e-01  0.0
 -1.800000042000e-01  -1.321269795200e-01  0.0
 -1.700000048000e-01  -1.255238205000e-01  0.0
 -1.600000054000e-01  -1.189206614800e-01  0.0
 -2.000000030000e-01  -1.362221986200e-01  0.0
 -1.900000036000e-01  -1.296190396000e-01  0.0
 -1.800000042000e-01  -1.230158805800e-01  0.0
 -1.700000048000e-01  -1.164127215600e-01  0.0
 -2.000000030000e-01  -1.271110996800e-01  0.0
 -1.900000036000e-01  -1.205079406600e-01  0.0
 -1.800000042000e-01  -1.139047816400e-01  0.0
 -2.000000030000e-01  -1.180000007400e-01  0.0
 -1.900000036000e-01  -1.113968417200e-01  0.0
 -2.000000030000e-01  -1.088889018000e-01  0.0
 -1.500000060000e-01  -1.214286014000e-01  0.0
 -1.600000054000e-01  -1.280317604200e-01  0.0
 -1.700000048000e-01  -1.346349194400e-01  0.0
 -1.800000042000e-01  -1.412380784600e-01  0.0
 -1.900000036000e-01  -1.478412374800e-01  0.0
 -2.000000030000e-01  -1.544443965000e-01  0.0
 -1.500000060000e-01  -1.311428814800e-01  0.0
 -1.600000054000e-01  -1.377460405000e-01  0.0
 -1.700000048000e-01  -1.443491995200e-01  0.0
 -1.800000042000e-01  -1.509523585400e-01  0.0
 -1.900000036000e-01  -1.575555175600e-01  0.0
 -1.500000060000e-01  -1.408571615600e-01  0.0
 -1.600000054000e-01  -1.474603205800e-01  0.0
 -1.700000048000e-01  -1.540634796000e-01  0.0
 -1.800000042000e-01  -1.606666386200e-01  0.0
 -1.500000060000e-01  -1.505714416400e-01  0.0
 -1.600000054000e-01  -1.571746006600e-01  0.0
 -1.700000048000e-01  -1.637777596800e-01  0.0
 -1.500000060000e-01  -1.602857217200e-01  0.0
 -1.600000054000e-01  -1.668888807400e-01  0.0
 -1.500000060000e-01  -1.700000018000e-01  0.0
 -1.500000060000e-01  -7.285714149000e-02  0.0
 -1.600000054000e-01  -8.006349355200e-02  0.0
 -1.700000048000e-01  -8.726984561400e-02  0.0
 -1.800000042000e-01  -9.447619767600e-02  0.0
 -1.900000036000e-01  -1.016825497380e-01  0.0
 -2.000000030000e-01  -1.088889018000e-01  0.0
 -1.500000060000e-01  -8.257143347200e-02  0.0
 -1.600000054000e-01  -8.977778553400e-02  0.0
 -1.700000048000e-01  -9.698413759600e-02  0.0
 -1.800000042000e-01  -1.041904896580e-01  0.0
 -1.900000036000e-01  -1.113968417200e-01  0.0
 -1.500000060000e-01  -9.228572545400e-02  0.0
 -1.600000054000e-01  -9.949207751600e-02  0.0
 -1.700000048000e-01  -1.066984295780e-01  0.0
 -1.800000042000e-01  -1.139047816400e-01  0.0
 -1.500000060000e-01  -1.020000174360e-01  0.0
 -1.600000054000e-01  -1.092063694980e-01  0.0
 -1.700000048000e-01  -1.164127215600e-01  0.0
 -1.500000060000e-01  -1.117143094180e-01  0.0
 -1.600000054000e-01  -1.189206614800e-01  0.0
 -1.500000060000e-01  -1.214286014000e-01  0.0
  1.832975030000e+00  -4.625000060000e-02  0.0
  1.841380024000e+00  -7.700000108000e-02  0.0
  1.849785018000e+00  -1.077500015600e-01  0.0
  1.858190012000e+00  -1.385000020400e-01  0.0
  1.866595006000e+00  -1.692500025200e-01  0.0
  1.875000000000e+00  -2.000000030000e-01  0.0
  1.866380024000e+00  -5.649999976400e-02  0.0
  1.874785018000e+00  -8.725000024400e-02  0.0
  1.883190012000e+00  -1.180000007240e-01  0.0
  1.891595006000e+00  -1.487500012040e-01  0.0
  1.900000000000e+00  -1.795000016840e-01  0.0
  1.899785018000e+00  -6.674999892800e-02  0.0
  1.908190012000e+00  -9.749999940800e-02  0.0
  1.916595006000e+00  -1.282499998880e-01  0.0
  1.925000000000e+00  -1.590000003680e-01  0.0
  1.933190012000e+00  -7.699999809200e-02  0.0
  1.941595006000e+00  -1.077499985720e-01  0.0
  1.950000000000e+00  -1.384999990520e-01  0.0
  1.966595006000e+00  -8.724999725600e-02  0.0
  1.975000000000e+00  -1.179999977360e-01  0.0
  2.000000000000e+00  -9.749999642000e-02  0.0
 -1.500000060000e-01  -1.700000018000e-01  0.0
 -1.444000050800e-01  -1.630000025200e-01  0.0
 -1.388000041600e-01  -1.560000032400e-01  0.0
 -1.332000032400e-01  -1.490000039600e-01  0.0
 -1.276000023200e-01  -1.420000046800e-01  0.0
 -1.220000014000e-01  -1.350000054000e-01  0.0
 -1.500000060000e-01  -1.602857217200e-01  0.0
 -1.444000050800e-01  -1.532857224400e-01  0.0
 -1.388000041600e-01  -1.462857231600e-01  0.0
 -1.332000032400e-01  -1.392857238800e-01  0.0
 -1.276000023200e-01  -1.322857246000e-01  0.0
 -1.500000060000e-01  -1.505714416400e-01  0.0
 -1.444000050800e-01  -1.435714423600e-01  0.0
 -1.388000041600e-01  -1.365714430800e-01  0.0
 -1.332000032400e-01  -1.295714438000e-01  0.0
 -1.500000060000e-01  -1.408571615600e-01  0.0
 -1.444000050800e-01  -1.338571622800e-01  0.0
 -1.388000041600e-01  -1.268571630000e-01  0.0
 -1.500000060000e-01  -1.311428814800e-01  0.0
 -1.444000050800e-01  -1.241428822000e-01  0.0
 -1.500000060000e-01  -1.214286014000e-01  0.0
  2.849999964000e-01  -2.333333530000e-02  0.0
  2.844999968800e-01  -4.666666836000e-02  0.0
  2.839999973600e-01  -7.000000142000e-02  0.0
  2.834999978400e-01  -9.333333448000e-02  0.0
  2.829999983200e-01  -1.166666675400e-01  0.0
  2.824999988000e-01  -1.400000006000e-01  0.0
  2.979999959200e-01  -3.266666830000e-02  0.0
  2.974999964000e-01  -5.600000136000e-02  0.0
  2.969999968800e-01  -7.933333442000e-02  0.0
  2.964999973600e-01  -1.026666674800e-01  0.0
  2.959999978400e-01  -1.260000005400e-01  0.0
  3.109999954400e-01  -4.200000130000e-02  0.0
  3.104999959200e-01  -6.533333436000e-02  0.0
  3.099999964000e-01  -8.866666742000e-02  0.0
  3.094999968800e-01  -1.120000004800e-01  0.0
  3.239999949600e-01  -5.133333430000e-02  0.0
  3.234999954400e-01  -7.466666736000e-02  0.0
  3.229999959200e-01  -9.800000042000e-02  0.0
  3.369999944800e-01  -6.066666730000e-02  0.0
  3.364999949600e-01  -8.400000036000e-02  0.0
  3.499999940000e-01  -7.000000030000e-02  0.0
 -1.071429029000e-01  -1.700000018000e-01  0.0
 -9.857146590000e-02  -1.700000018000e-01  0.0
 -9.000002890000e-02  -1.700000018000e-01  0.0
 -8.142859190000e-02  -1.700000018000e-01  0.0
 -7.285715490000e-02  -1.700000018000e-01  0.0
 -6.428571790000e-02  -1.700000018000e-01  0.0
 -1.037143230360e-01  -1.630000025200e-01  0.0
 -9.514288603600e-02  -1.630000025200e-01  0.0
 -8.657144903600e-02  -1.630000025200e-01  0.0
 -7.800001203600e-02  -1.630000025200e-01  0.0
 -6.942857503600e-02  -1.630000025200e-01  0.0
 -1.002857431720e-01  -1.560000032400e-01  0.0
 -9.171430617200e-02  -1.560000032400e-01  0.0
 -8.314286917200e-02  -1.560000032400e-01  0.0
 -7.457143217200e-02  -1.560000032400e-01  0.0
 -9.685716330800e-02  -1.490000039600e-01  0.0
 -8.828572630800e-02  -1.490000039600e-01  0.0
 -7.971428930800e-02  -1.490000039600e-01  0.0
 -9.342858344400e-02  -1.420000046800e-01  0.0
 -8.485714644400e-02  -1.420000046800e-01  0.0
 -9.000000358000e-02  -1.350000054000e-01  0.0
 -1.312499940000e-01  -2.000000030000e-01  0.0
 -1.264285757800e-01  -1.940000027600e-01  0.0
 -1.216071575600e-01  -1.880000025200e-01  0.0
 -1.167857393400e-01  -1.820000022800e-01  0.0
 -1.119643211200e-01  -1.760000020400e-01  0.0
 -1.071429029000e-01  -1.700000018000e-01  0.0
 -1.349999964000e-01  -1.940000027600e-01  0.0
 -1.301785781800e-01  -1.880000025200e-01  0.0
 -1.253571599600e-01  -1.820000022800e-01  0.0
 -1.205357417400e-01  -1.760000020400e-01  0.0
 -1.157143235200e-01  -1.700000018000e-01  0.0
 -1.387499988000e-01  -1.880000025200e-01  0.0
 -1.339285805800e-01  -1.820000022800e-01  0.0
 -1.291071623600e-01  -1.760000020400e-01  0.0
 -1.242857441400e-01  -1.700000018000e-01  0.0
 -1.425000012000e-01  -1.820000022800e-01  0.0
 -1.376785829800e-01  -1.760000020400e-01  0.0
 -1.328571647600e-01  -1.700000018000e-01  0.0
 -1.462500036000e-01  -1.760000020400e-01  0.0
 -1.414285853800e-01  -1.700000018000e-01  0.0
 -1.500000060000e-01  -1.700000018000e-01  0.0
[...]
POINT_DATA 7854
SCALARS field1 double 1
LOOKUP_TABLE default
  2.551030482528e-05 
  1.004723284803e-03 
  7.925982582766e-04 
  8.256979993036e-04 
  8.633709225939e-04 
  1.018844589062e-03 
  1.447920498226e-05 
  8.502780977254e-04 
  6.577600313628e-04 
  6.970971106796e-04 
  8.103487780632e-04 
 -3.032412791173e-07 
  6.825519791640e-04 
  5.260120729583e-04 
  6.271576379257e-04 
  2.086350605387e-05 
  4.343421584913e-04 
  4.252585812915e-04 
  7.772299446304e-06 
  2.048792283725e-04 
  3.675837483265e-06 
  1.922113570055e-03 
  1.739330239917e-03 
  1.744381259152e-03 
  1.661545096875e-03 
  1.688764690641e-03 
  1.653242962167e-05 
  1.748193151630e-03 
  1.799517512169e-03 
  1.658083476581e-03 
  1.755400738290e-03 
  4.012672092863e-06 
  1.829847341205e-03 
  1.679135286028e-03 
  1.786376623075e-03 
  5.909044167927e-06 
  1.694508510617e-03 
  1.817312837573e-03 
  5.164027162395e-06 
  1.841128809653e-03 
  4.465607440155e-06 
  5.976563144599e-06 
  9.904486978065e-04 
  1.185396566179e-03 
  1.307838276353e-03 
  1.407266043987e-03 
  1.522176508328e-03 
  1.583297973768e-03 
  1.148979022004e-03 
  1.300343032782e-03 
  1.425291237483e-03 
  1.519007092828e-03 
  1.594770212480e-03 
  1.314179336576e-03 
  1.436218198621e-03 
  1.526590525729e-03 
  1.625015519132e-03 
  1.463642572481e-03 
  1.550586417889e-03 
  1.643350050964e-03 
  1.605941197196e-03 
  1.665629198450e-03 
  1.726037097136e-03 
  1.584832420925e-03 
  1.523608616026e-03 
  1.411171269497e-03 
  1.304996475399e-03 
  1.188071252360e-03 
  9.933347334414e-04 
  1.496394954465e-03 
  1.446041840266e-03 
  1.322248312931e-03 
  1.182890671631e-03 
  9.793215214588e-04 
  1.449444830545e-03 
  1.359787056124e-03 
  1.222245676708e-03 
  1.067244244426e-03 
  1.400822143188e-03 
  1.275367967407e-03 
  1.143440200574e-03 
  1.336549710179e-03 
  1.212446227815e-03 
  1.323342766329e-03 
  1.862619001526e-03 
  1.863802007492e-03 
  1.844149402684e-03 
  1.823393567471e-03 
  1.806786622868e-03 
  1.728403937970e-03 
  1.798841765637e-03 
  1.815295697128e-03 
  1.782818299309e-03 
  1.738177919515e-03 
  1.665819855772e-03 
  1.765138280396e-03 
  1.744249131226e-03 
  1.696791795404e-03 
  1.647007384799e-03 
  1.731470457542e-03 
  1.669646127518e-03 
  1.621246465102e-03 
  1.686988121964e-03 
  1.593988434055e-03 
  1.585854076314e-03 
  1.823596227456e-03 
  1.612743378512e-03 
  1.658486308697e-03 
  1.609319414140e-03 
  1.711137061201e-03 
  7.547106631035e-04 
  1.691356034606e-03 
  1.670536353623e-03 
  1.647892753529e-03 
  1.614843909554e-03 
  1.640809722067e-03 
  1.687408494515e-03 
  1.662910967146e-03 
  1.640706952265e-03 
  1.610062254241e-03 
  1.689683159383e-03 
  1.661023522263e-03 
  1.654490524219e-03 
  1.689143818995e-03 
  1.596272824912e-03 
  1.893156631533e-03 
  1.320609070775e-03 
  1.365871367513e-03 
  1.437143538969e-03 
  1.498324258028e-03 
  1.562361506938e-03 
  1.641714286183e-03 
  1.337105380937e-03 
  1.415957734375e-03 
  1.490490910693e-03 
  1.555574038878e-03 
  1.605023892377e-03 
  1.401174850859e-03 
  1.473908642577e-03 
  1.538263341894e-03 
  1.607864919564e-03 
  1.451563454747e-03 
  1.537431575037e-03 
  1.591882090301e-03 
  1.501790689018e-03 
  1.603177584542e-03 
  1.586860586986e-03 
  1.683672856957e-03 
  1.671776410225e-03 
  1.673080086649e-03 
  1.693584460479e-03 
  1.678197963703e-03 
  1.836653682410e-03 
  1.666861862899e-03 
  1.674251095114e-03 
  1.682166234484e-03 
  1.683152857521e-03 
  1.693320359712e-03 
  1.677580766085e-03 
  1.677609397373e-03 
  1.686570689011e-03 
  1.690059975466e-03 
  1.677276993378e-03 
  1.680116820225e-03 
  1.677031512595e-03 
  1.686322761814e-03 
  1.683945444305e-03 
  1.678499526319e-03 
  1.640682633706e-03 
  1.647465001233e-03 
  1.684800131360e-03 
  1.727044742652e-03 
  1.769425630781e-03 
  1.886772555257e-03 
  1.620075936039e-03 
  1.669055278177e-03 
  1.707523782224e-03 
  1.750051198951e-03 
  1.785281159635e-03 
  1.652217246139e-03 
  1.697247447143e-03 
  1.736402632214e-03 
  1.773540530277e-03 
  1.680625677462e-03 
  1.725378778656e-03 
  1.759229240321e-03 
  1.713672038503e-03 
  1.752324979698e-03 
  1.750983156603e-03 
  2.633721745158e-05 
  1.455316519984e-03 
  1.441292188017e-03 
  1.516835022096e-03 
  1.537427173277e-03 
  1.660192305346e-03 
  1.385383738743e-03 
  1.378167872278e-03 
  1.439814836713e-03 
  1.524176610183e-03 
  1.546596075938e-03 
  1.299089261904e-03 
  1.370412923327e-03 
  1.457321188750e-03 
  1.492912860771e-03 
  1.305893497763e-03 
  1.393115096717e-03 
  1.430354207262e-03 
  1.276959784520e-03 
  1.363677131606e-03 
  1.318425490052e-03 
  1.634778836643e-03 
  1.643565839264e-03 
  1.672670282461e-03 
  1.697633605987e-03 
  1.722583484211e-03 
  1.747391282418e-03 
  1.651382978014e-03 
  1.671785725158e-03 
  1.696276453062e-03 
  1.719510106479e-03 
  1.745378206055e-03 
  1.680519250766e-03 
  1.698244029852e-03 
  1.718573847868e-03 
  1.742506628334e-03 
  1.704658808541e-03 
  1.721638833398e-03 
  1.738194677158e-03 
  1.724631636602e-03 
  1.740694970332e-03 
  1.746418623010e-03 
  1.748181661670e-03 
  1.722267661206e-03 
  1.698092800023e-03 
  1.672665994307e-03 
  1.643261455472e-03 
  1.636474207988e-03 
  1.713739875188e-03 
  1.691033604919e-03 
  1.660466797039e-03 
  1.636760121378e-03 
  1.598148539018e-03 
  1.681017746880e-03 
  1.660731331124e-03 
  1.628796495154e-03 
  1.595945626911e-03 
  1.653479464033e-03 
  1.623862979360e-03 
  1.591920918881e-03 
  1.619648551678e-03 
  1.591729845859e-03 
  1.646018015499e-03 
  1.854845309996e-03 
  1.823396406565e-03 
  1.798762017839e-03 
  1.779439543397e-03 
  1.760888268890e-03 
  1.745900267649e-03 
  1.842143218370e-03 
  1.812928067156e-03 
  1.785944532701e-03 
  1.762678594188e-03 
  1.740579343873e-03 
  1.824693696597e-03 
  1.794651603688e-03 
  1.766231342476e-03 
  1.738437454212e-03 
  1.803763435448e-03 
  1.771365392756e-03 
  1.742428853776e-03 
  1.779348101969e-03 
  1.745285284749e-03 
  1.748716862105e-03 
  1.635457601658e-03 
  1.652765805178e-03 
  1.681241266966e-03 
  1.705444698284e-03 
  1.723989071932e-03 
  1.747044623511e-03 
  1.606438342614e-03 
  1.644139815494e-03 
  1.673973615587e-03 
  1.700902201323e-03 
  1.725267404785e-03 
  1.605827780052e-03 
  1.636629996242e-03 
  1.671822878175e-03 
  1.694829859496e-03 
  1.594308865560e-03 
  1.634288400266e-03 
  1.671858596509e-03 
  1.602943807359e-03 
  1.634317245066e-03 
  1.591890685023e-03 
  1.854769761143e-03 
  1.842252619389e-03 
  1.824546651599e-03 
  1.803926686557e-03 
  1.778890787938e-03 
  1.750553458102e-03 
  1.877876616122e-03 
  1.861129935570e-03 
  1.839786472618e-03 
  1.814538717863e-03 
  1.787994382761e-03 
  1.899829850358e-03 
  1.878003014708e-03 
  1.853590489993e-03 
  1.827594072076e-03 
  1.921207475104e-03 
  1.894310680077e-03 
  1.866229509902e-03 
  1.940476296245e-03 
  1.906172078615e-03 
  1.956855782009e-03 
  1.651127481334e-03 
  1.591732450343e-03 
  1.592040617168e-03 
  1.595827103935e-03 
  1.597808564426e-03 
  1.638779097790e-03 
  1.545619986266e-03 
  1.541276671718e-03 
  1.543893708821e-03 
  1.552718394603e-03 
  1.563184583358e-03 
  1.490381865244e-03 
  1.485982971514e-03 
  1.494264613793e-03 
  1.498927560187e-03 
  1.429545848013e-03 
  1.429007409917e-03 
  1.437458150957e-03 
  1.361482056679e-03 
  1.366575395263e-03 
  1.318290286094e-03 
  6.435300976342e-06 
  6.612565177166e-06 
  5.582120822359e-06 
  6.564772740253e-06 
  4.972215080169e-06 
  1.439555633287e-05 
  1.974315063978e-03 
  2.004131210191e-03 
  1.994745757734e-03 
  1.982604540879e-03 
  1.921493094355e-03 
  1.880387152305e-03 
  1.845808618860e-03 
  1.838043978990e-03 
  1.855988515404e-03 
  1.966808211112e-03 
  1.973168678719e-03 
  1.954954086374e-03 
  1.904947345978e-03 
  1.906792961492e-03 
  2.106103786911e-03 
  1.862551700813e-03 
  1.802492998544e-03 
  1.766641520763e-03 
  1.729600152454e-03 
  1.681530427725e-03 
  1.591654558328e-03 
  1.824755437963e-03 
  1.787100506928e-03 
  1.740394813243e-03 
  1.687752064705e-03 
  1.635168058135e-03 
  1.789272916094e-03 
  1.753053515845e-03 
  1.719310729887e-03 
  1.672438453694e-03 
  1.775238511335e-03 
  1.735888970647e-03 
  1.693593509348e-03 
  1.753556021643e-03 
  1.725674365292e-03 
  1.745962365497e-03 
  2.232436215866e-03 
  2.129722023769e-03 
  2.060665292882e-03 
  1.987876097017e-03 
  1.907923465866e-03 
  1.859534034031e-03 
  2.217487566460e-03 
  2.111815256527e-03 
  2.027934367741e-03 
  1.954613441889e-03 
  1.924544016178e-03 
  2.156506295042e-03 
  2.074608253784e-03 
  1.994246021016e-03 
  1.934238253366e-03 
  2.102894411424e-03 
  2.027071113448e-03 
  1.939201817357e-03 
  2.041544654962e-03 
  1.954188406732e-03 
  1.981636998076e-03 
  2.229027088311e-03 
  2.147981423063e-03 
  2.059892873439e-03 
  1.955836832021e-03 
  1.844238789162e-03 
  1.728889383844e-03 
  2.129263574087e-03 
  2.064227807384e-03 
  1.986976909400e-03 
  1.898424399477e-03 
  1.809292675724e-03 
  2.057683174104e-03 
  1.980893016834e-03 
  1.913681103692e-03 
  1.826532089910e-03 
  1.992200602271e-03 
  1.922835017521e-03 
  1.842660860892e-03 
  1.907632888759e-03 
  1.862394898464e-03 
  1.863079022129e-03 
  2.227835515262e-03 
  2.220309521483e-03 
  2.158503236184e-03 
  2.103275381283e-03 
  2.040631843023e-03 
  1.983248266745e-03 
  2.290636994512e-03 
  2.267968317326e-03 
  2.201111007186e-03 
  2.141983049061e-03 
  2.054857469000e-03 
  2.352821393227e-03 
  2.311009211965e-03 
  2.229896204032e-03 
  2.168237095797e-03 
  2.405153405055e-03 
  2.344783591015e-03 
  2.261895609337e-03 
  2.442716115033e-03 
  2.370320835409e-03 
  2.478827572284e-03 
  1.981566096025e-03 
  1.955241350567e-03 
  1.940212212685e-03 
  1.931734639664e-03 
  1.918024543912e-03 
  1.862623173683e-03 
  1.907026469490e-03 
  1.899939734150e-03 
  1.887715346102e-03 
  1.869095114105e-03 
  1.853087022783e-03 
  1.836337280716e-03 
  1.835512984502e-03 
  1.836976936596e-03 
  1.831246385754e-03 
  1.775773725392e-03 
  1.779918855111e-03 
  1.782503476880e-03 
  1.711953654454e-03 
  1.732602686554e-03 
  1.642948232383e-03 
  1.601793318134e-03 
  1.697935404555e-03 
  1.773221913963e-03 
  1.849614384744e-03 
  1.912270799741e-03 
  1.981064111283e-03 
  1.610819589190e-03 
  1.694157470528e-03 
  1.772124962970e-03 
  1.840167770878e-03 
  1.907182626724e-03 
  1.609876128837e-03 
  1.696137209650e-03 
  1.770492744443e-03 
  1.836257452999e-03 
  1.619435839565e-03 
  1.701566578535e-03 
  1.775209481642e-03 
  1.636255332494e-03 
  1.711395972851e-03 
  1.644258343705e-03 
  1.977256860434e-03 
  2.003925292630e-03 
  1.994773416157e-03 
  1.992973400962e-03 
  2.000486196132e-03 
  2.005055301552e-03 
  2.055926248067e-03 
  2.075801916494e-03 
  2.084225933704e-03 
  2.088820463429e-03 
  2.079627659145e-03 
  2.164552643229e-03 
  2.173759465366e-03 
  2.184422485565e-03 
  2.185159020458e-03 
  2.264072281946e-03 
  2.277707125295e-03 
  2.286082974478e-03 
  2.369597476946e-03 
  2.392642019363e-03 
  2.485875745860e-03 
  1.862752939883e-03 
  1.831186922911e-03 
  1.800020652766e-03 
  1.775966971678e-03 
  1.758314080873e-03 
  1.741728686497e-03 
  1.852208513581e-03 
  1.813845523269e-03 
  1.779743885972e-03 
  1.748696459598e-03 
  1.724330460266e-03 
  1.830541214616e-03 
  1.784342612058e-03 
  1.739525306735e-03 
  1.704251993024e-03 
  1.783439621562e-03 
  1.733768687100e-03 
  1.682870040335e-03 
  1.732145711294e-03 
  1.662829558432e-03 
  1.644917554904e-03 
  1.946332257695e-03 
  1.751207133640e-03 
  1.731414674198e-03 
  1.716814834954e-03 
  1.722040509803e-03 
  1.752184445588e-03 
  1.620539373520e-03 
  1.701571704033e-03 
  1.693855194830e-03 
  1.705818011833e-03 
  1.681653238584e-03 
  1.709887112356e-03 
  1.680733928548e-03 
  1.680833636385e-03 
  1.657993242411e-03 
  1.644515365156e-03 
  1.645818957325e-03 
  1.639106421802e-03 
  1.665524799619e-03 
  1.684584250634e-03 
  5.518209129261e-04 
  1.564732775842e-03 
  1.627986324853e-03 
  1.669472028145e-03 
  1.702261448578e-03 
  1.728964253742e-03 
  1.745254050788e-03 
  1.628034192281e-03 
  1.672498212460e-03 
  1.705493518157e-03 
  1.729977360031e-03 
  1.748255735386e-03 
  1.693218473200e-03 
  1.721555264738e-03 
  1.742976342463e-03 
  1.758443995747e-03 
  1.759636066276e-03 
  1.772827670363e-03 
  1.781931369430e-03 
  1.825167070386e-03 
  1.823768681335e-03 
  1.888038322932e-03 
  1.741505299559e-03 
  1.758437047904e-03 
  1.776028182711e-03 
  1.799771986006e-03 
  1.830940780870e-03 
  1.862847574299e-03 
  1.766855863567e-03 
  1.768811608271e-03 
  1.781761982281e-03 
  1.797843826017e-03 
  1.824685492149e-03 
  1.771136040006e-03 
  1.773502153734e-03 
  1.776043081218e-03 
  1.788910331149e-03 
  1.770658219734e-03 
  1.765881145388e-03 
  1.772764675350e-03 
  1.766663917110e-03 
  1.752659984680e-03 
  1.745348938813e-03 
  8.564455152886e-04 
  9.800807858095e-04 
  1.081148564610e-03 
  1.167910048359e-03 
  1.242891775180e-03 
  1.312800535030e-03 
  9.179171341894e-04 
  1.026110791761e-03 
  1.119558801440e-03 
  1.201347506999e-03 
  1.270799607214e-03 
  9.880494499373e-04 
  1.087322425488e-03 
  1.170363586999e-03 
  1.243763135832e-03 
  1.075704688787e-03 
  1.160570280389e-03 
  1.231493487369e-03 
  1.177427692566e-03 
  1.243666077081e-03 
  1.290403388730e-03 
  1.312427482205e-03 
  1.403209576831e-03 
  1.479924705519e-03 
  1.546125367831e-03 
  1.603827712534e-03 
  1.646646449297e-03 
  1.344199007439e-03 
  1.429634351074e-03 
  1.500477172160e-03 
  1.560387715563e-03 
  1.612843571939e-03 
  1.390004019894e-03 
  1.464331385738e-03 
  1.526821307800e-03 
  1.579659151783e-03 
  1.445322948932e-03 
  1.505677383203e-03 
  1.558353820125e-03 
  1.505509898683e-03 
  1.553493182082e-03 
  1.564827595411e-03 
  1.564309352106e-03 
  1.531878156289e-03 
  1.484303299752e-03 
  1.430081665202e-03 
  1.367339639595e-03 
  1.290526874551e-03 
  1.505079819893e-03 
  1.454616970844e-03 
  1.396934051106e-03 
  1.327372992686e-03 
  1.243666668243e-03 
  1.445185709377e-03 
  1.384683877281e-03 
  1.314329839603e-03 
  1.231486878037e-03 
  1.389865165043e-03 
  1.322888081356e-03 
  1.243734140822e-03 
  1.344043214736e-03 
  1.270836671027e-03 
  1.312692646510e-03 
  1.312592088810e-03 
  1.352431642088e-03 
  1.411941912530e-03 
  1.477209986670e-03 
  1.548631708363e-03 
  1.605866713123e-03 
  1.403376279153e-03 
  1.439632943444e-03 
  1.489852836344e-03 
  1.547884424203e-03 
  1.610280641168e-03 
  1.480039948522e-03 
  1.513488187542e-03 
  1.558589343974e-03 
  1.610206729174e-03 
  1.546223467355e-03 
  1.576669749352e-03 
  1.619262011858e-03 
  1.604102274985e-03 
  1.635527618071e-03 
  1.645747546159e-03 
  1.854724880110e-03 
  1.868974451116e-03 
  1.880088069941e-03 
  1.888264432093e-03 
  1.892692737761e-03 
  1.888305121329e-03 
  1.834556547378e-03 
  1.841264196708e-03 
  1.842809344833e-03 
  1.837294608740e-03 
  1.823722437586e-03 
  1.813361740102e-03 
  1.810512461923e-03 
  1.801464675272e-03 
  1.781990275134e-03 
  1.791112014176e-03 
  1.778997684524e-03 
  1.758357059133e-03 
  1.768370615633e-03 
  1.748281844852e-03 
  1.745143708333e-03 
  1.565210424241e-03 
  1.553508485733e-03 
  1.558512295108e-03 
  1.579535641152e-03 
  1.612932546628e-03 
  1.646257802861e-03 
  1.628079531194e-03 
  1.612510297420e-03 
  1.617737870758e-03 
  1.635933047489e-03 
  1.663306856472e-03 
  1.669489887926e-03 
  1.660227188854e-03 
  1.663602580612e-03 
  1.682677682385e-03 
  1.702102484629e-03 
  1.695522148191e-03 
  1.703833713563e-03 
  1.729218464272e-03 
  1.723979170073e-03 
  1.743974060571e-03 
  1.854784674140e-03 
  1.834391727818e-03 
  1.813478248554e-03 
  1.791057392567e-03 
  1.768213566561e-03 
  1.743285350417e-03 
  1.823505946904e-03 
  1.809680948879e-03 
  1.793874981982e-03 
  1.778953214362e-03 
  1.766515834523e-03 
  1.798772410310e-03 
  1.789977523668e-03 
  1.781768200562e-03 
  1.771640189322e-03 
  1.779539633903e-03 
  1.774380864217e-03 
  1.770653207825e-03 
  1.761122867765e-03 
  1.766037598169e-03 
  1.745305378777e-03 
  1.312761928388e-03 
  1.242956184940e-03 
  1.167938742257e-03 
  1.081064918343e-03 
  9.802255573714e-04 
  8.561835364723e-04 
  1.268392879602e-03 
  1.193779695431e-03 
  1.110504197976e-03 
  1.013526919608e-03 
  9.027626911378e-04 
  1.235201513803e-03 
  1.156681646988e-03 
  1.068625157096e-03 
  9.663021907782e-04 
  1.214697188547e-03 
  1.134201092722e-03 
  1.045368210615e-03 
  1.207555482852e-03 
  1.128386310058e-03 
  1.209618745117e-03 
  1.957337473549e-03 
  1.905767913675e-03 
  1.866264751239e-03 
  1.827490787404e-03 
  1.787975297186e-03 
  1.751436929201e-03 
  1.910354062916e-03 
  1.873777569616e-03 
  1.832136593960e-03 
  1.795620211134e-03 
  1.752972060316e-03 
  1.878609590778e-03 
  1.842928491200e-03 
  1.805411369281e-03 
  1.760272769166e-03 
  1.851456561961e-03 
  1.811078506121e-03 
  1.774261648580e-03 
  1.812501073671e-03 
  1.785442370098e-03 
  1.886408780507e-03 
  1.745987619160e-03 
  1.686640272156e-03 
  1.675102467950e-03 
  1.675950709341e-03 
  1.677659434597e-03 
  1.814574187012e-03 
  1.643061831555e-03 
  1.651019548393e-03 
  1.646965007417e-03 
  1.643262931956e-03 
  1.599904811455e-03 
  1.655559204679e-03 
  1.648510408417e-03 
  1.649433200839e-03 
  1.645325197725e-03 
  1.637924896357e-03 
  1.640716081713e-03 
  1.634340239189e-03 
  1.635829475010e-03 
  1.651977274889e-03 
  1.615327373275e-03 
  2.034900672879e-03 
  1.992544175883e-03 
  1.965862970057e-03 
  1.949315535696e-03 
  1.931132049574e-03 
  1.975781844048e-03 
  2.038571826328e-03 
  2.010408745879e-03 
  1.983530037796e-03 
  1.960009112943e-03 
  1.942443422303e-03 
  2.055735546689e-03 
  2.014706527045e-03 
  1.991113407403e-03 
  1.964203949859e-03 
  2.062233477595e-03 
  2.024804216440e-03 
  1.988976472358e-03 
  2.061666523912e-03 
  2.019227845797e-03 
  2.067521678945e-03 
  2.032637755579e-03 
  2.020311923203e-03 
  2.009881494376e-03 
  1.992277666384e-03 
  1.971257173789e-03 
  1.956551202483e-03 
  1.967600024510e-03 
  1.960154300158e-03 
  1.945086722908e-03 
  1.931927505596e-03 
  1.910240257663e-03 
  1.918275010451e-03 
  1.910681693338e-03 
  1.896143641817e-03 
  1.878224379135e-03 
  1.876217952297e-03 
  1.863667854303e-03 
  1.851419983301e-03 
  1.832953375569e-03 
  1.812316251791e-03 
  1.886951380904e-03 
  1.854633823455e-03 
  1.890956536351e-03 
  1.936462025872e-03 
  1.995591805984e-03 
  2.073327140687e-03 
  2.177556459328e-03 
  1.868828220910e-03 
  1.908691435955e-03 
  1.961239447782e-03 
  2.032405337431e-03 
  2.127371712850e-03 
  1.880034525825e-03 
  1.925064521543e-03 
  1.987319623047e-03 
  2.074373165791e-03 
  1.888135010087e-03 
  1.940058265553e-03 
  2.016288464269e-03 
  1.892587990993e-03 
  1.953140586845e-03 
  1.887790295415e-03 
  2.177681765937e-03 
  2.073332154077e-03 
  1.995588293653e-03 
  1.936468637770e-03 
  1.890983424639e-03 
  1.854687364368e-03 
  2.119082472871e-03 
  2.037095296924e-03 
  1.971965488033e-03 
  1.920126005709e-03 
  1.877569703720e-03 
  2.071010808170e-03 
  2.002887564575e-03 
  1.946974547341e-03 
  1.899678815812e-03 
  2.028880129264e-03 
  1.969818555371e-03 
  1.920875827974e-03 
  1.989351726108e-03 
  1.940065091069e-03 
  1.955790644878e-03 
  2.365258018915e-03 
  2.342116057434e-03 
  2.312062760136e-03 
  2.274578282817e-03 
  2.229233348727e-03 
  2.178673968949e-03 
  2.246665194983e-03 
  2.222987136284e-03 
  2.192944796377e-03 
  2.158073898836e-03 
  2.118930948879e-03 
  2.149826697998e-03 
  2.127639898715e-03 
  2.100590473488e-03 
  2.071151317947e-03 
  2.071979037925e-03 
  2.051368441411e-03 
  2.028813610170e-03 
  2.008804110684e-03 
  1.989345403630e-03 
  1.955279593033e-03 
  2.430263997785e-03 
  2.264564962799e-03 
  2.128752329753e-03 