# vtk DataFile Version 2
NuDG++ 2D simulation
ASCII
DATASET UNSTRUCTURED_GRID

POINTS 7854 double
 -1.656250060000e-01  -2.000000030000e-01  0.0
 -1.725000054000e-01  -1.908888817000e-01  0.0
 -1.793750048000e-01  -1.817777604000e-01  0.0
 -1.862500042000e-01  -1.726666391000e-01  0.0
 -1.931250036000e-01  -1.635555178000e-01  0.0
 -2.000000030000e-01  -1.544443965000e-01  0.0
 -1.725000054000e-01  -2.000000030000e-01  0.0
 -1.793750048000e-01  -1.908888817000e-01  0.0
 -1.862500042000e-01  -1.817777604000e-01  0.0
 -1.931250036000e-01  -1.726666391000e-01  0.0
 -2.000000030000e-01  -1.635555178000e-01  0.0
 -1.793750048000e-01  -2.000000030000e-01  0.0
 -1.862500042000e-01  -1.908888817000e-01  0.0
 -1.931250036000e-01  -1.817777604000e-01  0.0
 -2.000000030000e-01  -1.726666391000e-01  0.0
 -1.862500042000e-01  -2.000000030000e-01  0.0
 -1.931250036000e-01  -1.908888817000e-01  0.0
 -2.000000030000e-01  -1.817777604000e-01  0.0
 -1.931250036000e-01  -2.000000030000e-01  0.0
 -2.000000030000e-01  -1.908888817000e-01  0.0
 -2.000000030000e-01  -2.000000030000e-01  0.0
 -6.428571790000e-02  -1.700000018000e-01  0.0
 -7.080357372400e-02  -1.760000020400e-01  0.0
 -7.732142954800e-02  -1.820000022800e-01  0.0
 -8.383928537200e-02  -1.880000025200e-01  0.0
 -9.035714119600e-02  -1.940000027600e-01  0.0
 -9.687499702000e-02  -2.000000030000e-01  0.0
 -6.392857432000e-02  -1.760000020400e-01  0.0
 -7.044643014400e-02  -1.820000022800e-01  0.0
 -7.696428596800e-02  -1.880000025200e-01  0.0
 -8.348214179200e-02  -1.940000027600e-01  0.0
 -8.999999761600e-02  -2.000000030000e-01  0.0
 -6.357143074000e-02  -1.820000022800e-01  0.0
 -7.008928656400e-02  -1.880000025200e-01  0.0
 -7.660714238800e-02  -1.940000027600e-01  0.0
 -8.312499821200e-02  -2.000000030000e-01  0.0
 -6.321428716000e-02  -1.880000025200e-01  0.0
 -6.973214298400e-02  -1.940000027600e-01  0.0
 -7.624999880800e-02  -2.000000030000e-01  0.0
 -6.285714358000e-02  -1.940000027600e-01  0.0
 -6.937499940400e-02  -2.000000030000e-01  0.0
 -6.250000000000e-02  -2.000000030000e-01  0.0
 -2.000000030000e-01  -1.544443965000e-01  0.0
 -1.900000036000e-01  -1.478412374800e-01  0.0
 -1.800000042000e-01  -1.412380784600e-01  0.0
 -1.700000048000e-01  -1.346349194400e-01  0.0
 -1.600000054000e-01  -1.280317604200e-01  0.0
 -1.500000060000e-01  -1.214286014000e-01  0.0
 -2.000000030000e-01  -1.453332975600e-01  0.0
 -1.900000036000e-01  -1.387301385400e-01  0.0
 -1.800000042000e-01  -1.321269795200e-01  0.0
 -1.700000048000e-01  -1.255238205000e-01  0.0
 -1.600000054000e-01  -1.189206614800e-01  0.0
 -2.000000030000e-01  -1.362221986200e-01  0.0
 -1.900000036000e-01  -1.296190396000e-01  0.0
 -1.800000042000e-01  -1.230158805800e-01  0.0
 -1.700000048000e-01  -1.164127215600e-01  0.0
 -2.000000030000e-01  -1.271110996800e-01  0.0
 -1.900000036000e-01  -1.205079406600e-01  0.0
 -1.800000042000e-01  -1.139047816400e-01  0.0
 -2.000000030000e-01  -1.180000007400e-01  0.0
 -1.900000036000e-01  -1.113968417200e-01  0.0
 -2.000000030000e-01  -1.088889018000e-01  0.0
 -1.500000060000e-01  -1.214286014000e-01  0.0
 -1.600000054000e-01  -1.280317604200e-01  0.0
 -1.700000048000e-01  -1.346349194400e-01  0.0
 -1.800000042000e-01  -1.412380784600e-01  0.0
 -1.900000036000e-01  -1.478412374800e-01  0.0
 -2.000000030000e-01  -1.544443965000e-01  0.0
 -1.500000060000e-01  -1.311428814800e-01  0.0
 -1.600000054000e-01  -1.377460405000e-01  0.0
 -1.700000048000e-01  -1.443491995200e-01  0.0
 -1.800000042000e-01  -1.509523585400e-01  0.0
 -1.900000036000e-01  -1.575555175600e-01  0.0
 -1.500000060000e-01  -1.408571615600e-01  0.0
 -1.600000054000e-01  -1.474603205800e-01  0.0
 -1.700000048000e-01  -1.540634796000e-01  0.0
 -1.800000042000e-01  -1.606666386200e-01  0.0
 -1.500000060000e-01  -1.505714416400e-01  0.0
 -1.600000054000e-01  -1.571746006600e-01  0.0
 -1.700000048000e-01  -1.637777596800e-01  0.0
 -1.500000060000e-01  -1.602857217200e-01  0.0
 -1.600000054000e-01  -1.668888807400e-01  0.0
 -1.500000060000e-01  -1.700000018000e-01  0.0
 -1.500000060000e-01  -7.285714149000e-02  0.0
 -1.600000054000e-01  -8.006349355200e-02  0.0
 -1.700000048000e-01  -8.726984561400e-02  0.0
 -1.800000042000e-01  -9.447619767600e-02  0.0
 -1.900000036000e-01  -1.016825497380e-01  0.0
 -2.000000030000e-01  -1.088889018000e-01  0.0
 -1.500000060000e-01  -8.257143347200e-02  0.0
 -1.600000054000e-01  -8.977778553400e-02  0.0
 -1.700000048000e-01  -9.698413759600e-02  0.0
 -1.800000042000e-01  -1.041904896580e-01  0.0
 -1.900000036000e-01  -1.113968417200e-01  0.0
 -1.500000060000e-01  -9.228572545400e-02  0.0
 -1.600000054000e-01  -9.949207751600e-02  0.0
 -1.700000048000e-01  -1.066984295780e-01  0.0
 -1.800000042000e-01  -1.139047816400e-01  0.0
 -1.500000060000e-01  -1.020000174360e-01  0.0
 -1.600000054000e-01  -1.092063694980e-01  0.0
 -1.700000048000e-01  -1.164127215600e-01  0.0
 -1.500000060000e-01  -1.117143094180e-01  0.0
 -1.600000054000e-01  -1.189206614800e-01  0.0
 -1.500000060000e-01  -1.214286014000e-01  0.0
  1.832975030000e+00  -4.625000060000e-02  0.0
  1.841380024000e+00  -7.700000108000e-02  0.0
  1.849785018000e+00  -1.077500015600e-01  0.0
  1.858190012000e+00  -1.385000020400e-01  0.0
  1.866595006000e+00  -1.692500025200e-01  0.0
  1.875000000000e+00  -2.000000030000e-01  0.0
  1.866380024000e+00  -5.649999976400e-02  0.0
  1.874785018000e+00  -8.725000024400e-02  0.0
  1.883190012000e+00  -1.180000007240e-01  0.0
  1.891595006000e+00  -1.487500012040e-01  0.0
  1.900000000000e+00  -1.795000016840e-01  0.0
  1.899785018000e+00  -6.674999892800e-02  0.0
  1.908190012000e+00  -9.749999940800e-02  0.0
  1.916595006000e+00  -1.282499998880e-01  0.0
  1.925000000000e+00  -1.590000003680e-01  0.0
  1.933190012000e+00  -7.699999809200e-02  0.0
  1.941595006000e+00  -1.077499985720e-01  0.0
  1.950000000000e+00  -1.384999990520e-01  0.0
  1.966595006000e+00  -8.724999725600e-02  0.0
  1.975000000000e+00  -1.179999977360e-01  0.0
  2.000000000000e+00  -9.749999642000e-02  0.0
 -1.500000060000e-01  -1.700000018000e-01  0.0
 -1.444000050800e-01  -1.630000025200e-01  0.0
 -1.388000041600e-01  -1.560000032400e-01  0.0
 -1.332000032400e-01  -1.490000039600e-01  0.0
 -1.276000023200e-01  -1.420000046800e-01  0.0
 -1.220000014000e-01  -1.350000054000e-01  0.0
 -1.500000060000e-01  -1.602857217200e-01  0.0
 -1.444000050800e-01  -1.532857224400e-01  0.0
 -1.388000041600e-01  -1.462857231600e-01  0.0
 -1.332000032400e-01  -1.392857238800e-01  0.0
 -1.276000023200e-01  -1.322857246000e-01  0.0
 -1.500000060000e-01  -1.505714416400e-01  0.0
 -1.444000050800e-01  -1.435714423600e-01  0.0
 -1.388000041600e-01  -1.365714430800e-01  0.0
 -1.332000032400e-01  -1.295714438000e-01  0.0
 -1.500000060000e-01  -1.408571615600e-01  0.0
 -1.444000050800e-01  -1.338571622800e-01  0.0
 -1.388000041600e-01  -1.268571630000e-01  0.0
 -1.500000060000e-01  -1.311428814800e-01  0.0
 -1.444000050800e-01  -1.241428822000e-01  0.0
 -1.500000060000e-01  -1.214286014000e-01  0.0
  2.849999964000e-01  -2.333333530000e-02  0.0
  2.844999968800e-01  -4.666666836000e-02  0.0
  2.839999973600e-01  -7.000000142000e-02  0.0
  2.834999978400e-01  -9.333333448000e-02  0.0
  2.829999983200e-01  -1.166666675400e-01  0.0
  2.824999988000e-01  -1.400000006000e-01  0.0
  2.979999959200e-01  -3.266666830000e-02  0.0
  2.974999964000e-01  -5.600000136000e-02  0.0
  2.969999968800e-01  -7.933333442000e-02  0.0
  2.964999973600e-01  -1.026666674800e-01  0.0
  2.959999978400e-01  -1.260000005400e-01  0.0
  3.109999954400e-01  -4.200000130000e-02  0.0
  3.104999959200e-01  -6.533333436000e-02  0.0
  3.099999964000e-01  -8.866666742000e-02  0.0
  3.094999968800e-01  -1.120000004800e-01  0.0
  3.239999949600e-01  -5.133333430000e-02  0.0
  3.234999954400e-01  -7.466666736000e-02  0.0
  3.229999959200e-01  -9.800000042000e-02  0.0
  3.369999944800e-01  -6.066666730000e-02  0.0
  3.364999949600e-01  -8.400000036000e-02  0.0
  3.499999940000e-01  -7.000000030000e-02  0.0
 -1.071429029000e-01  -1.700000018000e-01  0.0
 -9.857146590000e-02  -1.700000018000e-01  0.0
 -9.000002890000e-02  -1.700000018000e-01  0.0
 -8.142859190000e-02  -1.700000018000e-01  0.0
 -7.285715490000e-02  -1.700000018000e-01  0.0
 -6.428571790000e-02  -1.700000018000e-01  0.0
 -1.037143230360e-01  -1.630000025200e-01  0.0
 -9.514288603600e-02  -1.630000025200e-01  0.0
 -8.657144903600e-02  -1.630000025200e-01  0.0
 -7.800001203600e-02  -1.630000025200e-01  0.0
 -6.942857503600e-02  -1.630000025200e-01  0.0
 -1.002857431720e-01  -1.560000032400e-01  0.0
 -9.171430617200e-02  -1.560000032400e-01  0.0
 -8.314286917200e-02  -1.560000032400e-01  0.0
 -7.457143217200e-02  -1.560000032400e-01  0.0
 -9.685716330800e-02  -1.490000039600e-01  0.0
 -8.828572630800e-02  -1.490000039600e-01  0.0
 -7.971428930800e-02  -1.490000039600e-01  0.0
 -9.342858344400e-02  -1.420000046800e-01  0.0
 -8.485714644400e-02  -1.420000046800e-01  0.0
 -9.000000358000e-02  -1.350000054000e-01  0.0
 -1.312499940000e-01  -2.000000030000e-01  0.0
 -1.264285757800e-01  -1.940000027600e-01  0.0
 -1.216071575600e-01  -1.880000025200e-01  0.0
 -1.167857393400e-01  -1.820000022800e-01  0.0
 -1.119643211200e-01  -1.760000020400e-01  0.0
 -1.071429029000e-01  -1.700000018000e-01  0.0
 -1.349999964000e-01  -1.940000027600e-01  0.0
 -1.301785781800e-01  -1.880000025200e-01  0.0
 -1.253571599600e-01  -1.820000022800e-01  0.0
 -1.205357417400e-01  -1.760000020400e-01  0.0
 -1.157143235200e-01  -1.700000018000e-01  0.0
 -1.387499988000e-01  -1.880000025200e-01  0.0
 -1.339285805800e-01  -1.820000022800e-01  0.0
 -1.291071623600e-01  -1.760000020400e-01  0.0
 -1.242857441400e-01  -1.700000018000e-01  0.0
 -1.425000012000e-01  -1.820000022800e-01  0.0
 -1.376785829800e-01  -1.760000020400e-01  0.0
 -1.328571647600e-01  -1.700000018000e-01  0.0
 -1.462500036000e-01  -1.760000020400e-01  0.0
 -1.414285853800e-01  -1.700000018000e-01  0.0
 -1.500000060000e-01  -1.700000018000e-01  0.0
[...]
POINT_DATA 7854
SCALARS field1 double 1
LOOKUP_TABLE default
  1.121081172176e-05 
  6.518699151936e-03 
  6.578688980975e-03 
  6.441722745762e-03 
  7.041606360031e-03 
  8.166946500617e-03 
 -3.181886823559e-06 
  5.488905521260e-03 
  5.430393658874e-03 
  5.566875244714e-03 
  6.684004007705e-03 
 -9.693880857510e-07 
  4.177977710808e-03 
  4.238861717864e-03 
  5.142107956247e-03 
  1.832375930601e-05 
  2.668557265952e-03 
  3.513743203291e-03 
 -7.592936967234e-07 
  1.785451655505e-03 
  5.571874009617e-06 
  1.530151284246e-02 
  1.500869573298e-02 
  1.461056538070e-02 
  1.366841583630e-02 
  1.028164545345e-02 
 -1.359138809342e-06 
  1.526263579029e-02 
  1.487252231286e-02 
  1.393897268577e-02 
  1.050321536435e-02 
 -6.036771299631e-07 
  1.511830398958e-02 
  1.418914387282e-02 
  1.071177202580e-02 
 -6.083446064392e-07 
  1.442319725286e-02 
  1.090681697475e-02 
 -6.600275733309e-07 
  1.108648503066e-02 
 -5.224850364667e-07 
 -7.481497988327e-07 
  8.153051219730e-03 
  9.496502438234e-03 
  1.077407751533e-02 
  1.179217336324e-02 
  1.262380420242e-02 
  1.330563065337e-02 
  9.534485722337e-03 
  1.067804617966e-02 
  1.175760541101e-02 
  1.260024803190e-02 
  1.330525621499e-02 
  1.084320177057e-02 
  1.182441065875e-02 
  1.266983769753e-02 
  1.337929861120e-02 
  1.206661877520e-02 
  1.288031694125e-02 
  1.355600740309e-02 
  1.321065007077e-02 
  1.388670382366e-02 
  1.426538566816e-02 
  1.330811248952e-02 
  1.262431225202e-02 
  1.179485038450e-02 
  1.077218158033e-02 
  9.499042537740e-03 
  8.152922218527e-03 
  1.270620403866e-02 
  1.194528187397e-02 
  1.096362084676e-02 
  9.696259052967e-03 
  8.143907143165e-03 
  1.216725674145e-02 
  1.126895910328e-02 
  1.010380812914e-02 
  8.648583636014e-03 
  1.164519251949e-02 
  1.059794558712e-02 
  9.277775662419e-03 
  1.114482904065e-02 
  9.979187366126e-03 
  1.071720741834e-02 
  1.552842591397e-02 
  1.551295557724e-02 
  1.544397383465e-02 
  1.524187357377e-02 
  1.488403958215e-02 
  1.426744049061e-02 
  1.513086646339e-02 
  1.505357868000e-02 
  1.482658561437e-02 
  1.444044407845e-02 
  1.388611503583e-02 
  1.476503398293e-02 
  1.453468904420e-02 
  1.412312500410e-02 
  1.355783404253e-02 
  1.437431485728e-02 
  1.395629089496e-02 
  1.337687822575e-02 
  1.390530791941e-02 
  1.330443324143e-02 
  1.330655636967e-02 
  1.574634686269e-02 
  1.331771764076e-02 
  1.382716263604e-02 
  1.307675758139e-02 
  1.481996093785e-02 
  9.103665462607e-04 
  1.395187152616e-02 
  1.401238445579e-02 
  1.363105429399e-02 
  1.330851834825e-02 
  1.363383287340e-02 
  1.398720750120e-02 
  1.395126406159e-02 
  1.351524140370e-02 
  1.350243761093e-02 
  1.389404863620e-02 
  1.378393554885e-02 
  1.352502358835e-02 
  1.415039304686e-02 
  1.322161464283e-02 
  1.510483346794e-02 
  1.071479237632e-02 
  1.141264727479e-02 
  1.205573676797e-02 
  1.261940355404e-02 
  1.313216211053e-02 
  1.362548187550e-02 
  1.114563659744e-02 
  1.184086162520e-02 
  1.244974817558e-02 
  1.300191095604e-02 
  1.348477965264e-02 
  1.164638280206e-02 
  1.230017959328e-02 
  1.288113605772e-02 
  1.339869564442e-02 
  1.216918511318e-02 
  1.278961187909e-02 
  1.332550780109e-02 
  1.270953006718e-02 
  1.329864009031e-02 
  1.330900957694e-02 
  1.418790197650e-02 
  1.386406155782e-02 
  1.397972099036e-02 
  1.410310213394e-02 
  1.400381459632e-02 
  1.509534203973e-02 
  1.397670109098e-02 
  1.391627947548e-02 
  1.402463244795e-02 
  1.404095405780e-02 
  1.413178631742e-02 
  1.397112378005e-02 
  1.397983840871e-02 
  1.403142352377e-02 
  1.402791207810e-02 
  1.398872885847e-02 
  1.401347489684e-02 
  1.397534445448e-02 
  1.396185160822e-02 
  1.408206940532e-02 
  1.375473277665e-02 
  1.347633590134e-02 
  1.389297895347e-02 
  1.428540443753e-02 
  1.465149585844e-02 
  1.499123097327e-02 
  1.530473514508e-02 
  1.374794236277e-02 
  1.414366646463e-02 
  1.451417725078e-02 
  1.486880025003e-02 
  1.520037147570e-02 
  1.402058406443e-02 
  1.439450548184e-02 
  1.475111450326e-02 
  1.509574905477e-02 
  1.429103196227e-02 
  1.464746199073e-02 
  1.499389693733e-02 
  1.455669092890e-02 
  1.490172702056e-02 
  1.481837625724e-02 
 -5.682771471704e-06 
  8.807593149288e-03 
  1.179138199781e-02 
  1.269331183392e-02 
  1.312470727731e-02 
  1.347947769598e-02 
  8.351004333409e-03 
  1.123810662708e-02 
  1.216670991870e-02 
  1.263595423058e-02 
  1.301631596353e-02 
  1.061225837628e-02 
  1.157348357049e-02 
  1.209423779872e-02 
  1.252103426745e-02 
  1.089585002680e-02 
  1.149041423394e-02 
  1.197683003891e-02 
  1.080878034254e-02 
  1.137635421282e-02 
  1.070921653451e-02 
  1.361895342729e-02 
  1.384400852496e-02 
  1.408354325249e-02 
  1.432368962594e-02 
  1.456964284183e-02 
  1.481739224428e-02 
  1.386089465617e-02 
  1.407241040485e-02 
  1.429138004970e-02 
  1.451612692240e-02 
  1.474796180938e-02 
  1.409906753198e-02 
  1.428365766814e-02 
  1.448115800252e-02 
  1.469086740957e-02 
  1.431390842632e-02 
  1.447263903028e-02 
  1.464834313322e-02 
  1.449461225162e-02 
  1.463187345615e-02 
  1.464012291630e-02 
  1.481763159128e-02 
  1.456961587056e-02 
  1.432386276730e-02 
  1.408334032363e-02 
  1.384415979393e-02 
  1.361889091936e-02 
  1.455635188027e-02 
  1.429974020830e-02 
  1.403880251252e-02 
  1.377637861939e-02 
  1.350301746752e-02 
  1.429049609898e-02 
  1.401927728786e-02 
  1.373885922933e-02 
  1.344914286270e-02 
  1.402025197655e-02 
  1.373103713619e-02 
  1.342720603803e-02 
  1.374744703415e-02 
  1.343422504694e-02 
  1.347756166016e-02 
  1.568579258520e-02 
  1.539179448964e-02 
  1.515509843048e-02 
  1.495992599460e-02 
  1.479266369611e-02 
  1.464000565905e-02 
  1.559689032621e-02 
  1.530832594389e-02 
  1.505730311806e-02 
  1.483449298684e-02 
  1.463177751640e-02 
  1.545359227898e-02 
  1.516251175198e-02 
  1.489735332871e-02 
  1.464857991106e-02 
  1.526769800862e-02 
  1.497293463383e-02 
  1.469102224125e-02 
  1.505355727442e-02 
  1.474798277429e-02 
  1.481830075979e-02 
  1.362116317944e-02 
  1.386124963309e-02 
  1.409923825422e-02 
  1.431440111430e-02 
  1.449453353352e-02 
  1.463997784348e-02 
  1.348608514909e-02 
  1.377383643628e-02 
  1.402903596119e-02 
  1.425682806895e-02 
  1.445423317919e-02 
  1.339763204569e-02 
  1.370570191497e-02 
  1.399062725839e-02 
  1.423683360224e-02 
  1.332643968950e-02 
  1.367358787276e-02 
  1.399166266898e-02 
  1.329851769933e-02 
  1.368791010125e-02 
  1.331068828307e-02 
  1.568553254915e-02 
  1.559703063904e-02 
  1.545354420363e-02 
  1.526769575108e-02 
  1.505328307591e-02 
  1.481937159932e-02 
  1.591529120753e-02 
  1.577746378983e-02 
  1.559666446174e-02 
  1.538933652272e-02 
  1.516420674088e-02 
  1.613860048982e-02 
  1.595050648949e-02 
  1.573713903614e-02 
  1.551080521971e-02 
  1.634509158568e-02 
  1.611146173601e-02 
  1.586915813294e-02 
  1.652895803915e-02 
  1.625502335389e-02 
  1.668282904970e-02 
  1.347859448825e-02 
  1.343397569771e-02 
  1.342732545570e-02 
  1.344940476892e-02 
  1.350216474256e-02 
  1.362199664491e-02 
  1.301643325335e-02 
  1.298750990756e-02 
  1.299499457531e-02 
  1.304331046919e-02 
  1.313306813452e-02 
  1.252066203051e-02 
  1.250424136597e-02 
  1.253951211953e-02 
  1.261996172990e-02 
  1.197715238527e-02 
  1.198466528002e-02 
  1.205569569133e-02 
  1.137576388365e-02 
  1.141314539593e-02 
  1.071202694662e-02 
 -5.758923390876e-07 
 -6.524492533500e-07 
 -5.975385513814e-07 
 -7.341017792963e-07 
 -6.731711761606e-07 
 -1.616552590182e-06 
  1.207017567344e-02 
  1.205253626747e-02 
  1.198587588163e-02 
  1.187618522053e-02 
  1.173570060976e-02 
  1.571341735159e-02 
  1.567791518707e-02 
  1.557820215280e-02 
  1.542292883352e-02 
  1.648283846468e-02 
  1.642645464514e-02 
  1.630795656659e-02 
  1.664574256841e-02 
  1.656567470659e-02 
  1.669534555285e-02 
  1.552556031129e-02 
  1.513256591188e-02 
  1.476542693185e-02 
  1.437341761374e-02 
  1.390282799962e-02 
  1.330983107050e-02 
  1.515693182207e-02 
  1.485779259702e-02 
  1.452476387973e-02 
  1.414057025609e-02 
  1.368829618329e-02 
  1.491089884709e-02 
  1.465441263041e-02 
  1.434740058473e-02 
  1.399162464013e-02 
  1.475857120485e-02 
  1.451831695326e-02 
  1.423626225517e-02 
  1.466332826380e-02 
  1.445445281185e-02 
  1.463938083661e-02 
  1.835266498614e-02 
  1.780033872751e-02 
  1.709176996145e-02 
  1.647778926372e-02 
  1.594765961473e-02 
  1.552431246055e-02 
  1.839156309768e-02 
  1.760559884621e-02 
  1.689998609423e-02 
  1.632789143791e-02 
  1.586065380117e-02 
  1.803599887913e-02 
  1.727152757843e-02 
  1.660734494683e-02 
  1.605352830983e-02 
  1.756909495051e-02 
  1.683468149206e-02 
  1.617093707448e-02 
  1.700761188400e-02 
  1.628605743069e-02 
  1.644869686144e-02 
  1.834670131064e-02 
  1.769527836335e-02 
  1.696059139913e-02 
  1.614289367572e-02 
  1.524476739757e-02 
  1.426712132438e-02 
  1.780124353868e-02 
  1.718980729264e-02 
  1.649436348426e-02 
  1.572819534772e-02 
  1.488510090524e-02 
  1.708872805071e-02 
  1.652651667021e-02 
  1.592088769717e-02 
  1.524285972913e-02 
  1.648140894763e-02 
  1.598982824300e-02 
  1.544324586298e-02 
  1.594647668110e-02 
  1.551135202053e-02 
  1.553115740537e-02 
  1.834747595150e-02 
  1.839368945978e-02 
  1.803581575650e-02 
  1.756944693709e-02 
  1.700582477940e-02 
  1.645447996154e-02 
  1.891493300604e-02 
  1.885578036284e-02 
  1.836195958808e-02 
  1.780738829948e-02 
  1.716975398861e-02 
  1.940466453458e-02 
  1.923196199724e-02 
  1.862754436400e-02 
  1.799638609512e-02 
  1.981436401055e-02 
  1.954684936615e-02 
  1.885075974943e-02 
  2.014140371547e-02 
  1.977068137246e-02 
  2.038687688150e-02 
  1.644289599758e-02 
  1.628583685554e-02 
  1.616994155899e-02 
  1.605167029525e-02 
  1.585674110595e-02 
  1.552353927205e-02 
  1.579509645225e-02 
  1.573820730741e-02 
  1.567652291471e-02 
  1.559446624928e-02 
  1.544982018823e-02 
  1.520001901515e-02 
  1.522166086461e-02 
  1.523250119681e-02 
  1.521676375829e-02 
  1.463771043039e-02 
  1.474308193930e-02 
  1.483621208396e-02 
  1.410204550722e-02 
  1.432090780144e-02 
  1.357511737579e-02 
  1.317589013723e-02 
  1.395166433699e-02 
  1.463835140750e-02 
  1.528547441270e-02 
  1.587649667108e-02 
  1.644088644452e-02 
  1.315578613175e-02 
  1.392768985277e-02 
  1.462082333891e-02 
  1.523779579322e-02 
  1.579533317423e-02 
  1.317427307713e-02 
  1.395127500143e-02 
  1.462037252211e-02 
  1.519962706738e-02 
  1.326008738659e-02 
  1.401311944993e-02 
  1.463795812510e-02 
  1.340425304626e-02 
  1.410157414015e-02 
  1.357778171257e-02 
  1.644418404509e-02 
  1.652869384636e-02 
  1.655327702036e-02 
  1.655814277495e-02 
  1.657144490260e-02 
  1.659644389404e-02 
  1.717161590613e-02 
  1.729134995518e-02 
  1.734248211931e-02 
  1.737020341964e-02 
  1.734716045630e-02 
  1.799233368999e-02 
  1.810591771980e-02 
  1.818350430379e-02 
  1.821310210574e-02 
  1.885449504474e-02 
  1.900966071935e-02 
  1.908894758352e-02 
  1.976892244011e-02 
  1.994730688034e-02 
  2.039637771683e-02 
  1.552284100171e-02 
  1.524984135220e-02 
  1.500892737967e-02 
  1.480725079914e-02 
  1.465431415687e-02 
  1.457636551066e-02 
  1.544967002334e-02 
  1.510834686400e-02 
  1.480860367782e-02 
  1.454933566279e-02 
  1.433957182480e-02 
  1.521641843234e-02 
  1.481872474514e-02 
  1.444843540288e-02 
  1.411148453932e-02 
  1.483699923649e-02 
  1.436690105819e-02 
  1.390041274169e-02 
  1.432049585198e-02 
  1.372243197205e-02 
  1.357785447470e-02 
  1.493449316685e-02 
  1.426574291947e-02 
  1.412588959268e-02 
  1.408932218711e-02 
  1.417252404959e-02 
  1.476685948424e-02 
  1.387488700132e-02 
  1.411524831707e-02 
  1.409484092789e-02 
  1.414869738400e-02 
  1.404844601664e-02 
  1.401043308557e-02 
  1.385762215995e-02 
  1.387696470004e-02 
  1.361256090511e-02 
  1.390686310364e-02 
  1.387424887215e-02 
  1.384676876362e-02 
  1.323354572182e-02 
  1.426884400903e-02 
  5.064099883006e-04 
  1.291180702680e-02 
  1.345997570333e-02 
  1.386334563261e-02 
  1.417016704894e-02 
  1.440240391007e-02 
  1.457876007050e-02 
  1.348945707035e-02 
  1.390021220874e-02 
  1.420493256444e-02 
  1.443417444474e-02 
  1.460098563897e-02 
  1.410498959185e-02 
  1.437295627895e-02 
  1.457017970454e-02 
  1.471524333800e-02 
  1.473811604783e-02 
  1.486186465393e-02 
  1.494772340257e-02 
  1.536859690636e-02 
  1.535098886864e-02 
  1.597557373800e-02 
  1.457577102556e-02 
  1.465440755592e-02 
  1.480711094262e-02 
  1.500892377275e-02 
  1.524953774496e-02 
  1.552363177246e-02 
  1.476282221809e-02 
  1.477992260312e-02 
  1.486968589297e-02 
  1.499907776638e-02 
  1.515721589056e-02 
  1.484835655912e-02 
  1.482117328248e-02 
  1.484852593370e-02 
  1.491040716857e-02 
  1.485239123223e-02 
  1.478179618831e-02 
  1.475765123125e-02 
  1.478591521198e-02 
  1.466296293880e-02 
  1.463961464018e-02 
  6.214421405223e-03 
  7.351277714214e-03 
  8.301775420332e-03 
  9.114504901770e-03 
  9.820007090394e-03 
  1.045058645710e-02 
  6.740092706455e-03 
  7.790490272440e-03 
  8.674911641185e-03 
  9.433822878580e-03 
  1.008860032358e-02 
  7.391267878167e-03 
  8.360772346304e-03 
  9.155453614481e-03 
  9.838627107932e-03 
  8.189863943920e-03 
  9.045318275892e-03 
  9.730890219122e-03 
  9.127397390193e-03 
  9.829597849809e-03 
  1.016294365986e-02 
  1.045010508300e-02 
  1.129880548375e-02 
  1.201396100450e-02 
  1.261645181235e-02 
  1.313653030306e-02 
  1.358207705543e-02 
  1.077354431831e-02 
  1.155992755167e-02 
  1.221374867780e-02 
  1.276718723381e-02 
  1.324512447854e-02 
  1.120905370699e-02 
  1.189619755015e-02 
  1.247199238674e-02 
  1.296317225016e-02 
  1.172962976302e-02 
  1.229657239815e-02 
  1.277933066163e-02 
  1.230560598570e-02 
  1.274419666080e-02 
  1.291253869195e-02 
  1.291075417270e-02 
  1.256529361174e-02 
  1.213731821912e-02 
  1.163115821368e-02 
  1.100380483023e-02 
  1.016308770400e-02 
  1.230485517558e-02 
  1.184350875158e-02 
  1.129828263242e-02 
  1.064152310842e-02 
  9.829645008684e-03 
  1.172940581448e-02 
  1.117311669562e-02 
  1.051567119436e-02 
  9.730782739364e-03 
  1.120865894662e-02 
  1.057960761229e-02 
  9.838541398263e-03 
  1.077300781419e-02 
  1.008866549393e-02 
  1.045059157986e-02 
  1.045064019293e-02 
  1.081414713805e-02 
  1.134663275148e-02 
  1.195099840268e-02 
  1.258454075310e-02 
  1.318032679862e-02 
  1.129898265049e-02 
  1.162119623206e-02 
  1.207265074424e-02 
  1.259886718949e-02 
  1.315554768735e-02 
  1.201426173482e-02 
  1.230218661511e-02 
  1.270477072473e-02 
  1.317440134973e-02 
  1.261629022528e-02 
  1.289036424835e-02 
  1.326035941663e-02 
  1.313685344698e-02 
  1.340435332892e-02 
  1.358039461229e-02 
  1.568527118498e-02 
  1.580852953795e-02 
  1.590840390375e-02 
  1.597981275585e-02 
  1.601120273009e-02 
  1.597603874044e-02 
  1.547848497238e-02 
  1.553218751538e-02 
  1.553934187307e-02 
  1.548508923436e-02 
  1.535091901271e-02 
  1.525493644968e-02 
  1.522924918524e-02 
  1.513449465744e-02 
  1.494784495748e-02 
  1.502425193059e-02 
  1.491431986212e-02 
  1.471512378374e-02 
  1.479347311738e-02 
  1.460106553463e-02 
  1.457833697757e-02 
  1.291354029487e-02 
  1.274402786675e-02 
  1.277960015200e-02 
  1.296295882197e-02 
  1.324532745411e-02 
  1.358106596252e-02 
  1.345989161966e-02 
  1.330797393506e-02 
  1.333191818883e-02 
  1.348159041141e-02 
  1.372302906616e-02 
  1.386359631870e-02 
  1.374470786675e-02 
  1.376671341972e-02 
  1.390076906875e-02 
  1.417004657889e-02 
  1.408112919414e-02 
  1.411165292593e-02 
  1.440261803701e-02 
  1.433984207341e-02 
  1.457760769410e-02 
  1.568571412607e-02 
  1.547829954217e-02 
  1.525484419589e-02 
  1.502414481618e-02 
  1.479328918114e-02 
  1.457676237027e-02 
  1.539182521764e-02 
  1.523560214390e-02 
  1.507274632836e-02 
  1.491106123253e-02 
  1.476249882734e-02 
  1.515513564967e-02 
  1.504791275118e-02 
  1.494417387920e-02 
  1.484866726420e-02 
  1.495993750978e-02 
  1.490094270174e-02 
  1.485250495458e-02 
  1.479282406116e-02 
  1.478582619254e-02 
  1.463960042813e-02 
  1.045023196876e-02 
  9.820187565960e-03 
  9.114512777274e-03 
  8.301514537276e-03 
  7.351429545648e-03 
  6.214477786550e-03 
  1.002972647564e-02 
  9.347197636093e-03 
  8.567596390036e-03 
  7.665969347536e-03 
  6.619660618633e-03 
  9.715971124454e-03 
  8.992578717136e-03 
  8.168591112078e-03 
  7.218839955283e-03 
  9.516684662170e-03 
  8.778283849987e-03 
  7.944337969961e-03 
  9.440093164076e-03 
  8.715093474900e-03 
  9.478754629888e-03 
  1.668318859348e-02 
  1.625486104883e-02 
  1.586929439884e-02 
  1.551066253177e-02 
  1.516415508794e-02 
  1.481933588123e-02 
  1.634486717178e-02 
  1.596368766182e-02 
  1.560277617246e-02 
  1.525172717828e-02 
  1.490194283939e-02 
  1.603471921104e-02 
  1.568225466293e-02 
  1.533835792614e-02 
  1.499422229317e-02 
  1.575469750067e-02 
  1.542749911782e-02 
  1.509591468774e-02 
  1.551495718527e-02 
  1.520097181743e-02 
  1.530491319328e-02 
  1.557928881344e-02 
  1.391988205883e-02 
  1.393966610319e-02 
  1.388228060911e-02 
  1.407891960431e-02 
  1.518899272976e-02 
  1.386306177533e-02 
  1.367738560033e-02 
  1.371881066318e-02 
  1.370782309795e-02 
  1.391523931227e-02 
  1.371960096184e-02 
  1.374061097118e-02 
  1.375856894461e-02 
  1.385895980629e-02 
  1.371907865149e-02 
  1.365580810263e-02 
  1.366802022339e-02 
  1.375833772882e-02 
  1.405713967090e-02 
  1.392380924023e-02 
  1.740979252322e-02 
  1.713357401335e-02 
  1.689941524065e-02 
  1.671428360610e-02 
  1.657006044573e-02 
  1.645393515498e-02 
  1.753783226215e-02 
  1.723975869431e-02 
  1.699247807311e-02 
  1.679948389113e-02 
  1.664776369400e-02 
  1.763479623561e-02 
  1.731917667486e-02 
  1.706282897789e-02 
  1.686245812138e-02 
  1.769715313994e-02 
  1.737089406762e-02 
  1.710844559418e-02 
  1.772597370436e-02 
  1.739482999808e-02 
  1.771907252677e-02 
  1.740916077145e-02 
  1.732376813468e-02 
  1.720583804540e-02 
  1.705688255373e-02 
  1.688048965260e-02 
  1.668217511227e-02 
  1.688473294629e-02 
  1.678164610979e-02 
  1.665589870758e-02 
  1.650966107720e-02 
  1.634497926608e-02 
  1.642929267500e-02 
  1.631240041520e-02 
  1.617991656844e-02 
  1.603447169748e-02 
  1.603012011956e-02 
  1.589856209487e-02 
  1.575475130492e-02 
  1.566058852506e-02 
  1.551472480242e-02 
  1.530540242756e-02 
  1.568490979277e-02 
  1.602685185604e-02 
  1.645626064286e-02 
  1.701444854790e-02 
  1.774766324760e-02 
  1.871984821157e-02 
  1.580845368549e-02 
  1.618581242472e-02 
  1.668295343695e-02 
  1.735391104810e-02 
  1.825987526987e-02 
  1.590822518534e-02 
  1.633491984402e-02 
  1.692403733817e-02 
  1.774808836347e-02 
  1.597970582366e-02 
  1.647174375551e-02 
  1.718867209998e-02 
  1.601119403343e-02 
  1.659286161939e-02 
  1.597543427511e-02 
  1.871983365578e-02 
  1.774773092072e-02 
  1.701447364358e-02 
  1.645632202737e-02 
  1.602688525397e-02 
  1.568501328194e-02 
  1.819322764971e-02 
  1.741512615027e-02 
  1.680202041240e-02 
  1.631392632835e-02 
  1.591499114119e-02 
  1.774406224637e-02 
  1.710274543702e-02 
  1.657664061231e-02 
  1.613830041146e-02 
  1.734974382550e-02 
  1.680733485158e-02 
  1.634463184195e-02 
  1.699919994732e-02 
  1.652846148518e-02 
  1.668182334339e-02 
  2.052289314706e-02 
  2.030404810549e-02 
  2.001194286503e-02 
  1.964677281114e-02 
  1.921137978761e-02 
  1.872130499606e-02 
  1.940424282950e-02 
  1.917539122177e-02 
  1.889112156929e-02 
  1.855969229992e-02 
  1.819309794376e-02 
  1.850521779914e-02 
  1.828324914950e-02 
  1.802729398538e-02 
  1.774429883204e-02 
  1.777911893344e-02 
  1.757481561509e-02 
  1.734956005012e-02 
  1.718581942152e-02 
  1.699918146651e-02 
  1.668086707839e-02 
  2.057994831497e-02 
  1.939472530025e-02 
  1.822973451030e-02 