# vtk DataFile Version 2
NuDG++ 2D simulation
ASCII
DATASET UNSTRUCTURED_GRID

POINTS 7854 double
 -1.656250060000e-01  -2.000000030000e-01  0.0
 -1.725000054000e-01  -1.908888817000e-01  0.0
 -1.793750048000e-01  -1.817777604000e-01  0.0
 -1.862500042000e-01  -1.726666391000e-01  0.0
 -1.931250036000e-01  -1.635555178000e-01  0.0
 -2.000000030000e-01  -1.544443965000e-01  0.0
 -1.725000054000e-01  -2.000000030000e-01  0.0
 -1.793750048000e-01  -1.908888817000e-01  0.0
 -1.862500042000e-01  -1.817777604000e-01  0.0
 -1.931250036000e-01  -1.726666391000e-01  0.0
 -2.000000030000e-01  -1.635555178000e-01  0.0
 -1.793750048000e-01  -2.000000030000e-01  0.0
 -1.862500042000e-01  -1.908888817000e-01  0.0
 -1.931250036000e-01  -1.817777604000e-01  0.0
 -2.000000030000e-01  -1.726666391000e-01  0.0
 -1.862500042000e-01  -2.000000030000e-01  0.0
 -1.931250036000e-01  -1.908888817000e-01  0.0
 -2.000000030000e-01  -1.817777604000e-01  0.0
 -1.931250036000e-01  -2.000000030000e-01  0.0
 -2.000000030000e-01  -1.908888817000e-01  0.0
 -2.000000030000e-01  -2.000000030000e-01  0.0
 -6.428571790000e-02  -1.700000018000e-01  0.0
 -7.080357372400e-02  -1.760000020400e-01  0.0
 -7.732142954800e-02  -1.820000022800e-01  0.0
 -8.383928537200e-02  -1.880000025200e-01  0.0
 -9.035714119600e-02  -1.940000027600e-01  0.0
 -9.687499702000e-02  -2.000000030000e-01  0.0
 -6.392857432000e-02  -1.760000020400e-01  0.0
 -7.044643014400e-02  -1.820000022800e-01  0.0
 -7.696428596800e-02  -1.880000025200e-01  0.0
 -8.348214179200e-02  -1.940000027600e-01  0.0
 -8.999999761600e-02  -2.000000030000e-01  0.0
 -6.357143074000e-02  -1.820000022800e-01  0.0
 -7.008928656400e-02  -1.880000025200e-01  0.0
 -7.660714238800e-02  -1.940000027600e-01  0.0
 -8.312499821200e-02  -2.000000030000e-01  0.0
 -6.321428716000e-02  -1.880000025200e-01  0.0
 -6.973214298400e-02  -1.940000027600e-01  0.0
 -7.624999880800e-02  -2.000000030000e-01  0.0
 -6.285714358000e-02  -1.940000027600e-01  0.0
 -6.937499940400e-02  -2.000000030000e-01  0.0
 -6.250000000000e-02  -2.000000030000e-01  0.0
 -2.000000030000e-01  -1.544443965000e-01  0.0
 -1.900000036000e-01  -1.478412374800e-01  0.0
 -1.800000042000e-01  -1.412380784600e-01  0.0
 -1.700000048000e-01  -1.346349194400e-01  0.0
 -1.600000054000e-01  -1.280317604200e-01  0.0
 -1.500000060000e-01  -1.214286014000e-01  0.0
 -2.000000030000e-01  -1.453332975600e-01  0.0
 -1.900000036000e-01  -1.387301385400e-01  0.0
 -1.800000042000e-01  -1.321269795200e-01  0.0
 -1.700000048000e-01  -1.255238205000e-01  0.0
 -1.600000054000e-01  -1.189206614800e-01  0.0
 -2.000000030000e-01  -1.362221986200e-01  0.0
 -1.900000036000e-01  -1.296190396000e-01  0.0
 -1.800000042000e-01  -1.230158805800e-01  0.0
 -1.700000048000e-01  -1.164127215600e-01  0.0
 -2.000000030000e-01  -1.271110996800e-01  0.0
 -1.900000036000e-01  -1.205079406600e-01  0.0
 -1.800000042000e-01  -1.139047816400e-01  0.0
 -2.000000030000e-01  -1.180000007400e-01  0.0
 -1.900000036000e-01  -1.113968417200e-01  0.0
 -2.000000030000e-01  -1.088889018000e-01  0.0
 -1.500000060000e-01  -1.214286014000e-01  0.0
 -1.600000054000e-01  -1.280317604200e-01  0.0
 -1.700000048000e-01  -1.346349194400e-01  0.0
 -1.800000042000e-01  -1.412380784600e-01  0.0
 -1.900000036000e-01  -1.478412374800e-01  0.0
 -2.000000030000e-01  -1.544443965000e-01  0.0
 -1.500000060000e-01  -1.311428814800e-01  0.0
 -1.600000054000e-01  -1.377460405000e-01  0.0
 -1.700000048000e-01  -1.443491995200e-01  0.0
 -1.800000042000e-01  -1.509523585400e-01  0.0
 -1.900000036000e-01  -1.575555175600e-01  0.0
 -1.500000060000e-01  -1.408571615600e-01  0.0
 -1.600000054000e-01  -1.474603205800e-01  0.0
 -1.700000048000e-01  -1.540634796000e-01  0.0
 -1.800000042000e-01  -1.606666386200e-01  0.0
 -1.500000060000e-01  -1.505714416400e-01  0.0
 -1.600000054000e-01  -1.571746006600e-01  0.0
 -1.700000048000e-01  -1.637777596800e-01  0.0
 -1.500000060000e-01  -1.602857217200e-01  0.0
 -1.600000054000e-01  -1.668888807400e-01  0.0
 -1.500000060000e-01  -1.700000018000e-01  0.0
 -1.500000060000e-01  -7.285714149000e-02  0.0
 -1.600000054000e-01  -8.006349355200e-02  0.0
 -1.700000048000e-01  -8.726984561400e-02  0.0
 -1.800000042000e-01  -9.447619767600e-02  0.0
 -1.900000036000e-01  -1.016825497380e-01  0.0
 -2.000000030000e-01  -1.088889018000e-01  0.0
 -1.500000060000e-01  -8.257143347200e-02  0.0
 -1.600000054000e-01  -8.977778553400e-02  0.0
 -1.700000048000e-01  -9.698413759600e-02  0.0
 -1.800000042000e-01  -1.041904896580e-01  0.0
 -1.900000036000e-01  -1.113968417200e-01  0.0
 -1.500000060000e-01  -9.228572545400e-02  0.0
 -1.600000054000e-01  -9.949207751600e-02  0.0
 -1.700000048000e-01  -1.066984295780e-01  0.0
 -1.800000042000e-01  -1.139047816400e-01  0.0
 -1.500000060000e-01  -1.020000174360e-01  0.0
 -1.600000054000e-01  -1.092063694980e-01  0.0
 -1.700000048000e-01  -1.164127215600e-01  0.0
 -1.500000060000e-01  -1.117143094180e-01  0.0
 -1.600000054000e-01  -1.189206614800e-01  0.0
 -1.500000060000e-01  -1.214286014000e-01  0.0
  1.832975030000e+00  -4.625000060000e-02  0.0
  1.841380024000e+00  -7.700000108000e-02  0.0
  1.849785018000e+00  -1.077500015600e-01  0.0
  1.858190012000e+00  -1.385000020400e-01  0.0
  1.866595006000e+00  -1.692500025200e-01  0.0
  1.875000000000e+00  -2.000000030000e-01  0.0
  1.866380024000e+00  -5.649999976400e-02  0.0
  1.874785018000e+00  -8.725000024400e-02  0.0
  1.883190012000e+00  -1.180000007240e-01  0.0
  1.891595006000e+00  -1.487500012040e-01  0.0
  1.900000000000e+00  -1.795000016840e-01  0.0
  1.899785018000e+00  -6.674999892800e-02  0.0
  1.908190012000e+00  -9.749999940800e-02  0.0
  1.916595006000e+00  -1.282499998880e-01  0.0
  1.925000000000e+00  -1.590000003680e-01  0.0
  1.933190012000e+00  -7.699999809200e-02  0.0
  1.941595006000e+00  -1.077499985720e-01  0.0
  1.950000000000e+00  -1.384999990520e-01  0.0
  1.966595006000e+00  -8.724999725600e-02  0.0
  1.975000000000e+00  -1.179999977360e-01  0.0
  2.000000000000e+00  -9.749999642000e-02  0.0
 -1.500000060000e-01  -1.700000018000e-01  0.0
 -1.444000050800e-01  -1.630000025200e-01  0.0
 -1.388000041600e-01  -1.560000032400e-01  0.0
 -1.332000032400e-01  -1.490000039600e-01  0.0
 -1.276000023200e-01  -1.420000046800e-01  0.0
 -1.220000014000e-01  -1.350000054000e-01  0.0
 -1.500000060000e-01  -1.602857217200e-01  0.0
 -1.444000050800e-01  -1.532857224400e-01  0.0
 -1.388000041600e-01  -1.462857231600e-01  0.0
 -1.332000032400e-01  -1.392857238800e-01  0.0
 -1.276000023200e-01  -1.322857246000e-01  0.0
 -1.500000060000e-01  -1.505714416400e-01  0.0
 -1.444000050800e-01  -1.435714423600e-01  0.0
 -1.388000041600e-01  -1.365714430800e-01  0.0
 -1.332000032400e-01  -1.295714438000e-01  0.0
 -1.500000060000e-01  -1.408571615600e-01  0.0
 -1.444000050800e-01  -1.338571622800e-01  0.0
 -1.388000041600e-01  -1.268571630000e-01  0.0
 -1.500000060000e-01  -1.311428814800e-01  0.0
 -1.444000050800e-01  -1.241428822000e-01  0.0
 -1.500000060000e-01  -1.214286014000e-01  0.0
  2.849999964000e-01  -2.333333530000e-02  0.0
  2.844999968800e-01  -4.666666836000e-02  0.0
  2.839999973600e-01  -7.000000142000e-02  0.0
  2.834999978400e-01  -9.333333448000e-02  0.0
  2.829999983200e-01  -1.166666675400e-01  0.0
  2.824999988000e-01  -1.400000006000e-01  0.0
  2.979999959200e-01  -3.266666830000e-02  0.0
  2.974999964000e-01  -5.600000136000e-02  0.0
  2.969999968800e-01  -7.933333442000e-02  0.0
  2.964999973600e-01  -1.026666674800e-01  0.0
  2.959999978400e-01  -1.260000005400e-01  0.0
  3.109999954400e-01  -4.200000130000e-02  0.0
  3.104999959200e-01  -6.533333436000e-02  0.0
  3.099999964000e-01  -8.866666742000e-02  0.0
  3.094999968800e-01  -1.120000004800e-01  0.0
  3.239999949600e-01  -5.133333430000e-02  0.0
  3.234999954400e-01  -7.466666736000e-02  0.0
  3.229999959200e-01  -9.800000042000e-02  0.0
  3.369999944800e-01  -6.066666730000e-02  0.0
  3.364999949600e-01  -8.400000036000e-02  0.0
  3.499999940000e-01  -7.000000030000e-02  0.0
 -1.071429029000e-01  -1.700000018000e-01  0.0
 -9.857146590000e-02  -1.700000018000e-01  0.0
 -9.000002890000e-02  -1.700000018000e-01  0.0
 -8.142859190000e-02  -1.700000018000e-01  0.0
 -7.285715490000e-02  -1.700000018000e-01  0.0
 -6.428571790000e-02  -1.700000018000e-01  0.0
 -1.037143230360e-01  -1.630000025200e-01  0.0
 -9.514288603600e-02  -1.630000025200e-01  0.0
 -8.657144903600e-02  -1.630000025200e-01  0.0
 -7.800001203600e-02  -1.630000025200e-01  0.0
 -6.942857503600e-02  -1.630000025200e-01  0.0
 -1.002857431720e-01  -1.560000032400e-01  0.0
 -9.171430617200e-02  -1.560000032400e-01  0.0
 -8.314286917200e-02  -1.560000032400e-01  0.0
 -7.457143217200e-02  -1.560000032400e-01  0.0
 -9.685716330800e-02  -1.490000039600e-01  0.0
 -8.828572630800e-02  -1.490000039600e-01  0.0
 -7.971428930800e-02  -1.490000039600e-01  0.0
 -9.342858344400e-02  -1.420000046800e-01  0.0
 -8.485714644400e-02  -1.420000046800e-01  0.0
 -9.000000358000e-02  -1.350000054000e-01  0.0
 -1.312499940000e-01  -2.000000030000e-01  0.0
 -1.264285757800e-01  -1.940000027600e-01  0.0
 -1.216071575600e-01  -1.880000025200e-01  0.0
 -1.167857393400e-01  -1.820000022800e-01  0.0
 -1.119643211200e-01  -1.760000020400e-01  0.0
 -1.071429029000e-01  -1.700000018000e-01  0.0
 -1.349999964000e-01  -1.940000027600e-01  0.0
 -1.301785781800e-01  -1.880000025200e-01  0.0
 -1.253571599600e-01  -1.820000022800e-01  0.0
 -1.205357417400e-01  -1.760000020400e-01  0.0
 -1.157143235200e-01  -1.700000018000e-01  0.0
 -1.387499988000e-01  -1.880000025200e-01  0.0
 -1.339285805800e-01  -1.820000022800e-01  0.0
 -1.291071623600e-01  -1.760000020400e-01  0.0
 -1.242857441400e-01  -1.700000018000e-01  0.0
 -1.425000012000e-01  -1.820000022800e-01  0.0
 -1.376785829800e-01  -1.760000020400e-01  0.0
 -1.328571647600e-01  -1.700000018000e-01  0.0
 -1.462500036000e-01  -1.760000020400e-01  0.0
 -1.414285853800e-01  -1.700000018000e-01  0.0
 -1.500000060000e-01  -1.700000018000e-01  0.0
[...]
POINT_DATA 7854
SCALARS field1 double 1
LOOKUP_TABLE default
 -1.512959876733e-06 
  1.225236551369e-02 
  1.419701822680e-02 
  1.449808691866e-02 
  1.598486293014e-02 
  1.877690673539e-02 
 -3.838098187169e-06 
  1.014178668811e-02 
  1.163877940486e-02 
  1.266240970812e-02 
  1.539046574710e-02 
  1.676232717767e-06 
  7.683796178477e-03 
  9.280545503256e-03 
  1.183013885719e-02 
  1.016972226769e-05 
  5.310773916848e-03 
  8.078067375868e-03 
 -2.691539523063e-06 
  4.126429211461e-03 
  3.127527704714e-06 
  3.607166868106e-02 
  3.495340837380e-02 
  3.289107802922e-02 
  2.841073818657e-02 
  1.878246170716e-02 
 -8.489401252162e-07 
  3.557058747012e-02 
  3.351656641938e-02 
  2.900264119283e-02 
  1.920609176552e-02 
 -2.839091165123e-07 
  3.410144456466e-02 
  2.955466447893e-02 
  1.960629757034e-02 
 -3.287664684503e-07 
  3.007017686942e-02 
  1.998064527948e-02 
 -3.187810386055e-07 
  2.032778793291e-02 
 -2.003677686867e-07 
 -4.457798761635e-07 
  1.877543069867e-02 
  2.167858598275e-02 
  2.470380097853e-02 
  2.724372644884e-02 
  2.926789689491e-02 
  3.091115234963e-02 
  2.196525813672e-02 
  2.450835398003e-02 
  2.702370223135e-02 
  2.911898705140e-02 
  3.079184532725e-02 
  2.497000841981e-02 
  2.718922520784e-02 
  2.923884199127e-02 
  3.091690419096e-02 
  2.778515879342e-02 
  2.970685965562e-02 
  3.133304400522e-02 
  3.041321511364e-02 
  3.205841885784e-02 
  3.285447557852e-02 
  3.091108153564e-02 
  2.926787784577e-02 
  2.724330610611e-02 
  2.470379815700e-02 
  2.167883824645e-02 
  1.877698824732e-02 
  2.958749384261e-02 
  2.762388807054e-02 
  2.519575096512e-02 
  2.214301090164e-02 
  1.855065259818e-02 
  2.825775556448e-02 
  2.598975213766e-02 
  2.314850934392e-02 
  1.956540320019e-02 
  2.697949707275e-02 
  2.441855937351e-02 
  2.117334613713e-02 
  2.580814807113e-02 
  2.296630982827e-02 
  2.472974406013e-02 
  3.605936621404e-02 
  3.609896736173e-02 
  3.587944115277e-02 
  3.532920469544e-02 
  3.436155458448e-02 
  3.285579753107e-02 
  3.526622651711e-02 
  3.497057076857e-02 
  3.437328361250e-02 
  3.341605081548e-02 
  3.205784732720e-02 
  3.435192825276e-02 
  3.371413834427e-02 
  3.271885712676e-02 
  3.133262309172e-02 
  3.332290369433e-02 
  3.232314491776e-02 
  3.091666232972e-02 
  3.217180247349e-02 
  3.079194751830e-02 
  3.091046652913e-02 
  3.671784437366e-02 
  3.099595017622e-02 
  3.175698405624e-02 
  3.135908598965e-02 
  3.440506946013e-02 
  6.136489363255e-04 
  3.259185572842e-02 
  3.283684166331e-02 
  3.195731794188e-02 
  3.182951876475e-02 
  3.079873902542e-02 
  3.252749362492e-02 
  3.276734294179e-02 
  3.172443820038e-02 
  3.223921652519e-02 
  3.237004910104e-02 
  3.228431036018e-02 
  3.139255008832e-02 
  3.287909560428e-02 
  3.112067533151e-02 
  3.370020064358e-02 
  2.472966926295e-02 
  2.649785408259e-02 
  2.804688882040e-02 
  2.942330148045e-02 
  3.065648557699e-02 
  3.175157998073e-02 
  2.580738077109e-02 
  2.748614008438e-02 
  2.897227161131e-02 
  3.028552616335e-02 
  3.143888266391e-02 
  2.697970263133e-02 
  2.857969911279e-02 
  2.997448787457e-02 
  3.118614447142e-02 
  2.825799835030e-02 
  2.973552500502e-02 
  3.100576385739e-02 
  2.958691298525e-02 
  3.090725232521e-02 
  3.091117330609e-02 
  3.303808490192e-02 
  3.227400028502e-02 
  3.263072338323e-02 
  3.275089211545e-02 
  3.271763437657e-02 
  3.421219856626e-02 
  3.251132454490e-02 
  3.246132569449e-02 
  3.268115849012e-02 
  3.268221406245e-02 
  3.284039255225e-02 
  3.251532232137e-02 
  3.262768160045e-02 
  3.268836501354e-02 
  3.266585899257e-02 
  3.272703752642e-02 
  3.269265438820e-02 
  3.265741591250e-02 
  3.270478908541e-02 
  3.279019710366e-02 
  3.228755939357e-02 
  3.152264742425e-02 
  3.256763358930e-02 
  3.353588708878e-02 
  3.444294619416e-02 
  3.528846155729e-02 
  3.607462460610e-02 
  3.227333440754e-02 
  3.325793425957e-02 
  3.418683777946e-02 
  3.506223034688e-02 
  3.588435288251e-02 
  3.293785172142e-02 
  3.387160794052e-02 
  3.476397553361e-02 
  3.561772996455e-02 
  3.358593054080e-02 
  3.447681635139e-02 
  3.534512360425e-02 
  3.421745103554e-02 
  3.507971690469e-02 
  3.483550480989e-02 
 -1.209431654333e-06 
  1.599037899716e-02 
  2.436207479887e-02 
  2.840021956173e-02 
  3.037484763152e-02 
  3.152283595441e-02 
  1.513050486703e-02 
  2.317920092099e-02 
  2.716037415935e-02 
  2.917606994328e-02 
  3.041129470086e-02 
  2.184714098398e-02 
  2.577998106926e-02 
  2.786150818833e-02 
  2.919312978911e-02 
  2.422477415241e-02 
  2.640004732048e-02 
  2.785775539898e-02 
  2.475773691157e-02 
  2.638030069078e-02 
  2.472844128678e-02 
  3.175257745160e-02 
  3.236348269238e-02 
  3.297307936696e-02 
  3.358755076692e-02 
  3.420588573553e-02 
  3.483498353585e-02 
  3.236312668641e-02 
  3.290292849242e-02 
  3.345691484713e-02 
  3.402786526273e-02 
  3.461638853461e-02 
  3.292078214917e-02 
  3.339628283707e-02 
  3.389822676061e-02 
  3.443051568914e-02 
  3.341756604624e-02 
  3.383073286887e-02 
  3.428453963741e-02 
  3.383985972929e-02 
  3.419263886250e-02 
  3.416570184782e-02 
  3.483478958024e-02 
  3.420601325206e-02 
  3.358754151440e-02 
  3.297309887827e-02 
  3.236352709288e-02 
  3.175274923833e-02 
  3.421773360429e-02 
  3.356959106618e-02 
  3.291488884228e-02 
  3.225245953261e-02 
  3.157787659684e-02 
  3.358569688459e-02 
  3.290201259061e-02 
  3.220085936183e-02 
  3.147975803239e-02 
  3.293797115598e-02 
  3.221184709000e-02 
  3.145681290349e-02 
  3.227337164847e-02 
  3.149707314394e-02 
  3.152329651050e-02 
  3.683620433886e-02 
  3.609010845877e-02 
  3.548224359529e-02 
  3.497698263033e-02 
  3.454780606261e-02 
  3.416583049235e-02 
  3.664923856654e-02 
  3.591138035776e-02 
  3.527211631354e-02 
  3.470577738420e-02 
  3.419256357446e-02 
  3.631768879710e-02 
  3.558121090573e-02 
  3.490950775086e-02 
  3.428454964129e-02 
  3.588403190521e-02 
  3.513941015422e-02 
  3.443052779454e-02 
  3.538043256488e-02 
  3.461631187735e-02 
  3.483546563950e-02 
  3.175232419599e-02 
  3.236319390164e-02 
  3.292074328475e-02 
  3.341758892747e-02 
  3.384003137878e-02 
  3.416534917973e-02 
  3.143882565333e-02 
  3.210951458723e-02 
  3.271886997353e-02 
  3.325768374247e-02 
  3.371267712891e-02 
  3.118617811185e-02 
  3.192326302801e-02 
  3.259166124269e-02 
  3.317987952438e-02 
  3.100536483422e-02 
  3.181631778565e-02 
  3.255069450287e-02 
  3.090724117576e-02 
  3.180092999745e-02 
  3.091074830762e-02 
  3.683582242578e-02 
  3.664922940656e-02 
  3.631763826866e-02 
  3.588406336583e-02 
  3.538027722239e-02 
  3.483632649134e-02 
  3.744676756650e-02 
  3.712772767487e-02 
  3.670513540208e-02 
  3.621607663736e-02 
  3.568382204761e-02 
  3.803521277425e-02 
  3.758880741131e-02 
  3.708239383039e-02 
  3.654476224958e-02 
  3.857769855240e-02 
  3.801716731791e-02 
  3.743910255046e-02 
  3.906116558824e-02 
  3.840220818375e-02 
  3.947012764974e-02 
  3.152323876408e-02 
  3.149737169598e-02 
  3.145705341370e-02 
  3.147983484679e-02 
  3.157770625891e-02 
  3.175247212456e-02 
  3.041154585215e-02 
  3.039495317790e-02 
  3.039252010206e-02 
  3.047665391333e-02 
  3.065646959518e-02 
  2.919325968530e-02 
  2.920689897755e-02 
  2.925952513582e-02 
  2.942346926977e-02 
  2.785801744359e-02 
  2.791454278612e-02 
  2.804638717059e-02 
  2.638035747561e-02 
  2.649774765954e-02 
  2.472915043309e-02 
 -2.326549859343e-07 
 -3.220238557274e-07 
 -2.488442688239e-07 
 -3.759320371737e-07 
 -3.056917282711e-07 
 -1.110304292919e-06 
  2.219760052348e-02 
  2.214606232941e-02 
  2.198920362149e-02 
  2.174705272009e-02 
  2.144823183051e-02 
  3.286499128032e-02 
  3.276546587792e-02 
  3.250631159912e-02 
  3.212655205131e-02 
  3.731029849994e-02 
  3.715159518006e-02 
  3.682330434807e-02 
  3.894139691616e-02 
  3.871581394289e-02 
  3.950205077853e-02 
  3.605779539377e-02 
  3.526526892850e-02 
  3.435166389291e-02 
  3.332319060353e-02 
  3.217184487926e-02 
  3.091065214093e-02 
  3.524876615496e-02 
  3.455912371235e-02 
  3.375753264663e-02 
  3.283662395639e-02 
  3.180089309223e-02 
  3.467219819976e-02 
  3.408189135572e-02 
  3.337131726333e-02 
  3.255076325261e-02 
  3.430797895491e-02 
  3.380364864004e-02 
  3.317997620789e-02 
  3.414867076435e-02 
  3.371270481002e-02 
  3.416497460520e-02 
  4.224281046081e-02 
  4.126059946791e-02 
  3.972518481025e-02 
  3.826762172306e-02 
  3.704262253507e-02 
  3.605963250079e-02 
  4.260745378215e-02 
  4.094018326660e-02 
  3.930656335313e-02 
  3.790443970353e-02 
  3.671031138003e-02 
  4.197182991725e-02 
  4.017596574644e-02 
  3.859040999461e-02 
  3.721417893479e-02 
  4.089577287235e-02 
  3.914193510366e-02 
  3.758679614297e-02 
  3.958221206266e-02 
  3.787095834538e-02 
  3.811000061623e-02 
  4.224136755129e-02 
  4.073921111388e-02 
  3.904957256562e-02 
  3.717317473115e-02 
  3.510818772980e-02 
  3.285464331684e-02 
  4.126102123542e-02 
  3.980355174022e-02 
  3.816322949032e-02 
  3.635187644343e-02 
  3.436132484524e-02 
  3.972516035950e-02 
  3.841368043347e-02 
  3.694476139101e-02 
  3.532863399920e-02 
  3.826773405064e-02 
  3.714444189726e-02 
  3.588033244914e-02 
  3.704186880932e-02 
  3.609866004306e-02 
  3.606174363207e-02 
  4.224167472120e-02 
  4.260721800759e-02 
  4.197110453612e-02 
  4.089611562861e-02 
  3.958190016036e-02 
  3.811190875693e-02 
  4.355616183169e-02 
  4.369068550318e-02 
  4.276393126577e-02 
  4.143325220095e-02 
  3.991258025575e-02 
  4.468211450118e-02 
  4.459606665296e-02 
  4.341306459703e-02 
  4.185282170017e-02 
  4.562025564955e-02 
  4.533122109557e-02 
  4.391656150974e-02 
  4.637196948077e-02 
  4.588506878538e-02 
  4.693391232582e-02 
  3.810824362414e-02 
  3.787003683820e-02 
  3.758614078482e-02 
  3.721436237107e-02 
  3.671049172031e-02 
  3.605702102921e-02 
  3.658343567523e-02 
  3.649568704553e-02 
  3.637215576707e-02 
  3.617104250490e-02 
  3.584313424969e-02 
  3.514813687579e-02 
  3.523836094978e-02 
  3.530127046899e-02 
  3.528951040862e-02 
  3.377653301112e-02 
  3.408989150002e-02 
  3.438047188486e-02 
  3.247031716272e-02 
  3.306573495953e-02 
  3.123880751675e-02 
  3.019263229587e-02 
  3.204564154220e-02 
  3.374712035430e-02 
  3.531332334359e-02 
  3.675761142673e-02 
  3.810745963989e-02 
  3.006861534408e-02 
  3.199236211337e-02 
  3.369527169433e-02 
  3.521706907827e-02 
  3.658344636747e-02 
  3.012774904802e-02 
  3.205400719063e-02 
  3.370859309348e-02 
  3.514790761269e-02 
  3.035792164201e-02 
  3.221898378595e-02 
  3.377682135902e-02 
  3.073809491663e-02 
  3.247024734731e-02 
  3.123966714568e-02 
  3.810997532605e-02 
  3.825578416315e-02 
  3.836239287641e-02 
  3.841903266182e-02 
  3.844501678989e-02 
  3.845761660096e-02 
  3.991305521509e-02 
  4.016440342238e-02 
  4.030906624673e-02 
  4.037063489754e-02 
  4.035047261995e-02 
  4.185256415556e-02 
  4.216236303564e-02 
  4.234208497365e-02 
  4.239779577276e-02 
  4.391712277147e-02 
  4.428172457583e-02 
  4.447853842257e-02 
  4.588475816952e-02 
  4.628049170517e-02 
  4.693519256001e-02 
  3.605553174533e-02 
  3.541940161782e-02 
  3.485920911338e-02 
  3.439257191588e-02 
  3.404143356276e-02 
  3.387869151330e-02 
  3.584345698047e-02 
  3.506204740806e-02 
  3.435654430558e-02 
  3.373617129337e-02 
  3.324298489972e-02 
  3.528920662595e-02 
  3.434800715850e-02 
  3.345558281101e-02 
  3.262626810285e-02 
  3.438048107915e-02 
  3.322419557409e-02 
  3.206194802179e-02 
  3.306562824235e-02 
  3.159060704980e-02 
  3.123983278665e-02 
  3.425188659254e-02 
  3.293179715918e-02 
  3.254917618605e-02 
  3.259126050528e-02 
  3.310703271902e-02 
  3.414812070110e-02 
  3.257302995630e-02 
  3.275061371983e-02 
  3.276936223107e-02 
  3.302761121053e-02 
  3.342073860433e-02 
  3.255532924856e-02 
  3.234532471666e-02 
  3.222725883744e-02 
  3.175188851179e-02 
  3.243535337564e-02 
  3.267622678460e-02 
  3.224253276883e-02 
  2.817099848263e-02 
  3.179907235803e-02 
  2.946563205484e-04 
  2.964630539504e-02 
  3.103965084927e-02 
  3.206667281709e-02 
  3.284666533158e-02 
  3.343513431289e-02 
  3.388201940017e-02 
  3.111276898190e-02 
  3.217403654570e-02 
  3.295098873923e-02 
  3.353356488728e-02 
  3.395842154766e-02 
  3.268132681282e-02 
  3.338835100789e-02 
  3.389448682230e-02 
  3.426422653061e-02 
  3.430120635622e-02 
  3.464335435599e-02 
  3.486833631018e-02 
  3.591663965276e-02 
  3.589778491562e-02 
  3.747445415402e-02 
  3.387837384011e-02 
  3.404147601995e-02 
  3.439248655035e-02 
  3.485935921413e-02 
  3.541934708669e-02 
  3.605599178878e-02 
  3.436215938015e-02 
  3.437827187789e-02 
  3.456243052122e-02 
  3.486227025448e-02 
  3.524877764068e-02 
  3.460464226611e-02 
  3.449244223881e-02 
  3.453063310463e-02 
  3.467166684979e-02 
  3.463445703018e-02 
  3.441003934450e-02 
  3.430822619064e-02 
  3.448354529916e-02 
  3.414849668255e-02 
  3.416562159845e-02 
  1.275269738429e-02 
  1.553831258612e-02 
  1.793060020344e-02 
  1.998800280358e-02 
  2.177377985303e-02 
  2.335044794851e-02 
  1.389524560969e-02 
  1.656415572665e-02 
  1.883805944702e-02 
  2.078230941691e-02 
  2.245395398048e-02 
  1.534169762701e-02 
  1.789814665189e-02 
  2.000729907367e-02 
  2.179129987012e-02 
  1.712805320669e-02 
  1.951134009886e-02 
  2.141260594484e-02 
  1.924635347380e-02 
  2.137517281646e-02 
  2.163209638712e-02 
  2.334841039867e-02 
  2.549837068103e-02 
  2.729286565073e-02 
  2.880510323208e-02 
  3.010516405412e-02 
  3.124186846762e-02 
  2.418829911620e-02 
  2.617259210270e-02 
  2.781508690121e-02 
  2.920393754511e-02 
  3.039554808707e-02 
  2.529691556204e-02 
  2.703550620138e-02 
  2.848234369249e-02 
  2.971443536873e-02 
  2.661976923362e-02 
  2.806037933951e-02 
  2.927269399613e-02 
  2.808990312516e-02 
  2.920521125943e-02 
  2.964760784192e-02 
  2.964478795088e-02 
  2.873087924756e-02 
  2.757662844395e-02 
  2.612964304247e-02 
  2.422526247387e-02 
  2.163263870183e-02 
  2.808916395557e-02 
  2.689702076567e-02 
  2.545091757221e-02 
  2.365667100652e-02 
  2.137520222805e-02 
  2.661967709638e-02 
  2.519458320462e-02 
  2.348590588528e-02 
  2.141247474260e-02 
  2.529659642227e-02 
  2.369292583395e-02 
  2.179109691784e-02 
  2.418766532481e-02 
  2.245409746439e-02 
  2.335019854866e-02 
  2.334794460313e-02 
  2.425862105576e-02 
  2.557580516726e-02 
  2.708168129471e-02 
  2.864758784790e-02 
  3.019322132349e-02 
  2.549859935798e-02 
  2.628136449611e-02 
  2.739620640623e-02 
  2.869462366527e-02 
  3.006850299743e-02 
  2.729300873247e-02 
  2.798891773640e-02 
  2.897380820109e-02 
  3.012751668397e-02 
  2.880488415476e-02 
  2.945792616517e-02 
  3.035792540890e-02 
  3.010534966473e-02 
  3.073833648313e-02 
  3.124051095051e-02 
  3.683593062772e-02 
  3.713300320993e-02 
  3.736963544104e-02 
  3.753400326435e-02 
  3.759559191570e-02 
  3.747514675882e-02 
  3.628549550978e-02 
  3.640235602495e-02 
  3.640456254958e-02 
  3.625466627071e-02 
  3.589767259118e-02 
  3.568680552286e-02 
  3.560524200110e-02 
  3.535175634164e-02 
  3.486852556556e-02 
  3.506661735629e-02 
  3.477834642878e-02 
  3.426407216346e-02 
  3.445238400254e-02 
  3.395850801452e-02 
  3.388148695054e-02 
  2.964875316195e-02 
  2.920493173455e-02 
  2.927296837183e-02 
  2.971430789465e-02 
  3.039568704034e-02 
  3.124131206651e-02 
  3.103933659395e-02 
  3.063286189576e-02 
  3.066600501904e-02 
  3.101432493626e-02 
  3.159122198856e-02 
  3.206700951457e-02 
  3.173555129223e-02 
  3.176140332075e-02 
  3.206260192168e-02 
  3.284654537990e-02 
  3.258685334419e-02 
  3.262694112009e-02 
  3.343534980498e-02 
  3.324333919364e-02 
  3.388035812137e-02 
  3.683659031690e-02 
  3.628523718220e-02 
  3.568658061289e-02 
  3.506616734884e-02 
  3.445205907699e-02 
  3.387949382262e-02 
  3.609007213506e-02 
  3.566074193703e-02 
  3.521577002970e-02 
  3.477491231978e-02 
  3.436202354481e-02 
  3.548236816903e-02 
  3.517583353243e-02 
  3.487827300625e-02 
  3.460481998527e-02 
  3.497689210366e-02 
  3.479267959998e-02 
  3.463447113785e-02 
  3.454793185819e-02 
  3.448391227031e-02 
  3.416541915863e-02 
  2.334915289854e-02 
  2.177416925705e-02 
  1.998785613706e-02 
  1.793029435830e-02 
  1.553837272111e-02 
  1.275343142279e-02 
  2.229002789800e-02 
  2.057653806285e-02 
  1.861681356117e-02 
  1.636807482215e-02 
  1.379367924182e-02 
  2.149171293228e-02 
  1.968024426179e-02 
  1.762048003400e-02 
  1.527459349613e-02 
  2.098343201627e-02 
  1.913877016726e-02 
  1.706063978096e-02 
  2.078631368628e-02 
  1.897590918267e-02 
  2.089218927812e-02 
  3.947079063930e-02 
  3.840215111784e-02 
  3.743931417568e-02 
  3.654463230029e-02 
  3.568394104567e-02 
  3.483590818400e-02 
  3.866295733407e-02 
  3.770957100372e-02 
  3.681072930729e-02 
  3.594089514181e-02 
  3.508004130261e-02 
  3.791363726114e-02 
  3.703958040244e-02 
  3.618861941231e-02 
  3.534512650649e-02 
  3.724275113530e-02 
  3.643273687624e-02 
  3.561805338721e-02 
  3.666835403219e-02 
  3.588447947909e-02 
  3.607695822244e-02 
  3.663973217125e-02 
  3.251510952326e-02 
  3.248720903444e-02 
  3.235650823720e-02 
  3.281210241970e-02 
  3.384543467648e-02 
  3.291988221166e-02 
  3.232369315876e-02 
  3.243515549488e-02 
  3.243451242573e-02 
  3.308320554967e-02 
  3.230243063133e-02 
  3.254772657650e-02 
  3.246068550429e-02 
  3.287461563215e-02 
  3.227037919398e-02 
  3.227090617091e-02 
  3.344329922606e-02 
  3.281579773208e-02 
  3.376765229545e-02 
  3.365819294656e-02 
  4.136962622294e-02 
  4.069756252365e-02 
  4.013348470697e-02 
  3.967471573695e-02 
  3.931404041193e-02 
  3.893455922947e-02 
  4.169920979095e-02 
  4.097238494437e-02 
  4.036909943160e-02 
  3.988885664156e-02 
  3.950930252593e-02 
  4.195009638618e-02 
  4.117649769893e-02 
  4.054688852982e-02 
  4.005021117168e-02 
  4.211246034986e-02 
  4.130816262171e-02 
  4.066425341612e-02 
  4.218659004324e-02 
  4.136775436157e-02 
  4.217134849511e-02 
  4.136911089682e-02 
  4.114357342630e-02 
  4.083724956178e-02 
  4.045119369399e-02 
  3.999083886804e-02 
  3.946982699171e-02 
  4.006554402920e-02 
  3.979682020194e-02 
  3.947021869980e-02 
  3.909078413280e-02 
  3.866300741758e-02 
  3.894500395579e-02 
  3.863824533102e-02 
  3.829322587840e-02 
  3.791344343347e-02 
  3.795419638955e-02 
  3.761410817082e-02 
  3.724281529968e-02 
  3.703866550138e-02 
  3.666810075854e-02 
  3.607783229275e-02 
  3.683540529709e-02 
  3.770128871059e-02 
  3.879109628853e-02 
  4.020506335360e-02 
  4.206015731742e-02 
  4.449440144834e-02 
  3.713283778819e-02 
  3.808819494233e-02 
  3.934890494952e-02 
  4.104647045349e-02 
  4.331965482720e-02 
  3.736932417484e-02 
  3.845056893686e-02 
  3.994203480602e-02 
  4.200262165515e-02 
  3.753383379503e-02 
  3.878028520902e-02 
  4.056437372991e-02 
  3.759565188810e-02 
  3.904067414486e-02 
  3.747403730849e-02 
  4.449452678385e-02 
  4.206023109079e-02 
  4.020513725135e-02 
  3.879116289679e-02 
  3.770135619350e-02 
  3.683535493530e-02 
  4.321305613577e-02 
  4.124301778221e-02 
  3.968872526691e-02 
  3.845274283950e-02 
  3.744641110981e-02 
  4.209664717856e-02 
  4.047245660695e-02 
  3.914145162611e-02 
  3.803479492816e-02 
  4.111883614340e-02 
  3.974677303462e-02 
  3.857715313422e-02 
  4.025121230594e-02 
  3.906050713363e-02 
  3.946890137562e-02 
  4.913467529745e-02 
  4.857275753822e-02 
  4.781520016432e-02 
  4.686926241415e-02 
  4.575058563841e-02 
  4.449659987338e-02 
  4.633195255698e-02 
  4.573917027589e-02 
  4.500728404234e-02 
  4.415632774108e-02 
  4.321286133362e-02 
  4.406124870123e-02 
  4.348670446476e-02 
  4.282657122544e-02 
  4.209696420959e-02 
  4.222906959682e-02 
  4.170028025804e-02 
  4.111858727989e-02 
  4.073205692776e-02 
  4.025120138269e-02 
  3.946771395363e-02 
  4.502479399828e-02 
  4.410760362620e-02 
  4.235418238546e-02 