# vtk DataFile Version 2
NuDG++ 2D simulation
ASCII
DATASET UNSTRUCTURED_GRID

POINTS 7854 double
 -1.656250060000e-01  -2.000000030000e-01  0.0
 -1.725000054000e-01  -1.908888817000e-01  0.0
 -1.793750048000e-01  -1.817777604000e-01  0.0
 -1.862500042000e-01  -1.726666391000e-01  0.0
 -1.931250036000e-01  -1.635555178000e-01  0.0
 -2.000000030000e-01  -1.544443965000e-01  0.0
 -1.725000054000e-01  -2.000000030000e-01  0.0
 -1.793750048000e-01  -1.908888817000e-01  0.0
 -1.862500042000e-01  -1.817777604000e-01  0.0
 -1.931250036000e-01  -1.726666391000e-01  0.0
 -2.000000030000e-01  -1.635555178000e-01  0.0
 -1.793750048000e-01  -2.000000030000e-01  0.0
 -1.862500042000e-01  -1.908888817000e-01  0.0
 -1.931250036000e-01  -1.817777604000e-01  0.0
 -2.000000030000e-01  -1.726666391000e-01  0.0
 -1.862500042000e-01  -2.000000030000e-01  0.0
 -1.931250036000e-01  -1.908888817000e-01  0.0
 -2.000000030000e-01  -1.817777604000e-01  0.0
 -1.931250036000e-01  -2.000000030000e-01  0.0
 -2.000000030000e-01  -1.908888817000e-01  0.0
 -2.000000030000e-01  -2.000000030000e-01  0.0
 -6.428571790000e-02  -1.700000018000e-01  0.0
 -7.080357372400e-02  -1.760000020400e-01  0.0
 -7.732142954800e-02  -1.820000022800e-01  0.0
 -8.383928537200e-02  -1.880000025200e-01  0.0
 -9.035714119600e-02  -1.940000027600e-01  0.0
 -9.687499702000e-02  -2.000000030000e-01  0.0
 -6.392857432000e-02  -1.760000020400e-01  0.0
 -7.044643014400e-02  -1.820000022800e-01  0.0
 -7.696428596800e-02  -1.880000025200e-01  0.0
 -8.348214179200e-02  -1.940000027600e-01  0.0
 -8.999999761600e-02  -2.000000030000e-01  0.0
 -6.357143074000e-02  -1.820000022800e-01  0.0
 -7.008928656400e-02  -1.880000025200e-01  0.0
 -7.660714238800e-02  -1.940000027600e-01  0.0
 -8.312499821200e-02  -2.000000030000e-01  0.0
 -6.321428716000e-02  -1.880000025200e-01  0.0
 -6.973214298400e-02  -1.940000027600e-01  0.0
 -7.624999880800e-02  -2.000000030000e-01  0.0
 -6.285714358000e-02  -1.940000027600e-01  0.0
 -6.937499940400e-02  -2.000000030000e-01  0.0
 -6.250000000000e-02  -2.000000030000e-01  0.0
 -2.000000030000e-01  -1.544443965000e-01  0.0
 -1.900000036000e-01  -1.478412374800e-01  0.0
 -1.800000042000e-01  -1.412380784600e-01  0.0
 -1.700000048000e-01  -1.346349194400e-01  0.0
 -1.600000054000e-01  -1.280317604200e-01  0.0
 -1.500000060000e-01  -1.214286014000e-01  0.0
 -2.000000030000e-01  -1.453332975600e-01  0.0
 -1.900000036000e-01  -1.387301385400e-01  0.0
 -1.800000042000e-01  -1.321269795200e-01  0.0
 -1.700000048000e-01  -1.255238205000e-01  0.0
 -1.600000054000e-01  -1.189206614800e-01  0.0
 -2.000000030000e-01  -1.362221986200e-01  0.0
 -1.900000036000e-01  -1.296190396000e-01  0.0
 -1.800000042000e-01  -1.230158805800e-01  0.0
 -1.700000048000e-01  -1.164127215600e-01  0.0
 -2.000000030000e-01  -1.271110996800e-01  0.0
 -1.900000036000e-01  -1.205079406600e-01  0.0
 -1.800000042000e-01  -1.139047816400e-01  0.0
 -2.000000030000e-01  -1.180000007400e-01  0.0
 -1.900000036000e-01  -1.113968417200e-01  0.0
 -2.000000030000e-01  -1.088889018000e-01  0.0
 -1.500000060000e-01  -1.214286014000e-01  0.0
 -1.600000054000e-01  -1.280317604200e-01  0.0
 -1.700000048000e-01  -1.346349194400e-01  0.0
 -1.800000042000e-01  -1.412380784600e-01  0.0
 -1.900000036000e-01  -1.478412374800e-01  0.0
 -2.000000030000e-01  -1.544443965000e-01  0.0
 -1.500000060000e-01  -1.311428814800e-01  0.0
 -1.600000054000e-01  -1.377460405000e-01  0.0
 -1.700000048000e-01  -1.443491995200e-01  0.0
 -1.800000042000e-01  -1.509523585400e-01  0.0
 -1.900000036000e-01  -1.575555175600e-01  0.0
 -1.500000060000e-01  -1.408571615600e-01  0.0
 -1.600000054000e-01  -1.474603205800e-01  0.0
 -1.700000048000e-01  -1.540634796000e-01  0.0
 -1.800000042000e-01  -1.606666386200e-01  0.0
 -1.500000060000e-01  -1.505714416400e-01  0.0
 -1.600000054000e-01  -1.571746006600e-01  0.0
 -1.700000048000e-01  -1.637777596800e-01  0.0
 -1.500000060000e-01  -1.602857217200e-01  0.0
 -1.600000054000e-01  -1.668888807400e-01  0.0
 -1.500000060000e-01  -1.700000018000e-01  0.0
 -1.500000060000e-01  -7.285714149000e-02  0.0
 -1.600000054000e-01  -8.006349355200e-02  0.0
 -1.700000048000e-01  -8.726984561400e-02  0.0
 -1.800000042000e-01  -9.447619767600e-02  0.0
 -1.900000036000e-01  -1.016825497380e-01  0.0
 -2.000000030000e-01  -1.088889018000e-01  0.0
 -1.500000060000e-01  -8.257143347200e-02  0.0
 -1.600000054000e-01  -8.977778553400e-02  0.0
 -1.700000048000e-01  -9.698413759600e-02  0.0
 -1.800000042000e-01  -1.041904896580e-01  0.0
 -1.900000036000e-01  -1.113968417200e-01  0.0
 -1.500000060000e-01  -9.228572545400e-02  0.0
 -1.600000054000e-01  -9.949207751600e-02  0.0
 -1.700000048000e-01  -1.066984295780e-01  0.0
 -1.800000042000e-01  -1.139047816400e-01  0.0
 -1.500000060000e-01  -1.020000174360e-01  0.0
 -1.600000054000e-01  -1.092063694980e-01  0.0
 -1.700000048000e-01  -1.164127215600e-01  0.0
 -1.500000060000e-01  -1.117143094180e-01  0.0
 -1.600000054000e-01  -1.189206614800e-01  0.0
 -1.500000060000e-01  -1.214286014000e-01  0.0
  1.832975030000e+00  -4.625000060000e-02  0.0
  1.841380024000e+00  -7.700000108000e-02  0.0
  1.849785018000e+00  -1.077500015600e-01  0.0
  1.858190012000e+00  -1.385000020400e-01  0.0
  1.866595006000e+00  -1.692500025200e-01  0.0
  1.875000000000e+00  -2.000000030000e-01  0.0
  1.866380024000e+00  -5.649999976400e-02  0.0
  1.874785018000e+00  -8.725000024400e-02  0.0
  1.883190012000e+00  -1.180000007240e-01  0.0
  1.891595006000e+00  -1.487500012040e-01  0.0
  1.900000000000e+00  -1.795000016840e-01  0.0
  1.899785018000e+00  -6.674999892800e-02  0.0
  1.908190012000e+00  -9.749999940800e-02  0.0
  1.916595006000e+00  -1.282499998880e-01  0.0
  1.925000000000e+00  -1.590000003680e-01  0.0
  1.933190012000e+00  -7.699999809200e-02  0.0
  1.941595006000e+00  -1.077499985720e-01  0.0
  1.950000000000e+00  -1.384999990520e-01  0.0
  1.966595006000e+00  -8.724999725600e-02  0.0
  1.975000000000e+00  -1.179999977360e-01  0.0
  2.000000000000e+00  -9.749999642000e-02  0.0
 -1.500000060000e-01  -1.700000018000e-01  0.0
 -1.444000050800e-01  -1.630000025200e-01  0.0
 -1.388000041600e-01  -1.560000032400e-01  0.0
 -1.332000032400e-01  -1.490000039600e-01  0.0
 -1.276000023200e-01  -1.420000046800e-01  0.0
 -1.220000014000e-01  -1.350000054000e-01  0.0
 -1.500000060000e-01  -1.602857217200e-01  0.0
 -1.444000050800e-01  -1.532857224400e-01  0.0
 -1.388000041600e-01  -1.462857231600e-01  0.0
 -1.332000032400e-01  -1.392857238800e-01  0.0
 -1.276000023200e-01  -1.322857246000e-01  0.0
 -1.500000060000e-01  -1.505714416400e-01  0.0
 -1.444000050800e-01  -1.435714423600e-01  0.0
 -1.388000041600e-01  -1.365714430800e-01  0.0
 -1.332000032400e-01  -1.295714438000e-01  0.0
 -1.500000060000e-01  -1.408571615600e-01  0.0
 -1.444000050800e-01  -1.338571622800e-01  0.0
 -1.388000041600e-01  -1.268571630000e-01  0.0
 -1.500000060000e-01  -1.311428814800e-01  0.0
 -1.444000050800e-01  -1.241428822000e-01  0.0
 -1.500000060000e-01  -1.214286014000e-01  0.0
  2.849999964000e-01  -2.333333530000e-02  0.0
  2.844999968800e-01  -4.666666836000e-02  0.0
  2.839999973600e-01  -7.000000142000e-02  0.0
  2.834999978400e-01  -9.333333448000e-02  0.0
  2.829999983200e-01  -1.166666675400e-01  0.0
  2.824999988000e-01  -1.400000006000e-01  0.0
  2.979999959200e-01  -3.266666830000e-02  0.0
  2.974999964000e-01  -5.600000136000e-02  0.0
  2.969999968800e-01  -7.933333442000e-02  0.0
  2.964999973600e-01  -1.026666674800e-01  0.0
  2.959999978400e-01  -1.260000005400e-01  0.0
  3.109999954400e-01  -4.200000130000e-02  0.0
  3.104999959200e-01  -6.533333436000e-02  0.0
  3.099999964000e-01  -8.866666742000e-02  0.0
  3.094999968800e-01  -1.120000004800e-01  0.0
  3.239999949600e-01  -5.133333430000e-02  0.0
  3.234999954400e-01  -7.466666736000e-02  0.0
  3.229999959200e-01  -9.800000042000e-02  0.0
  3.369999944800e-01  -6.066666730000e-02  0.0
  3.364999949600e-01  -8.400000036000e-02  0.0
  3.499999940000e-01  -7.000000030000e-02  0.0
 -1.071429029000e-01  -1.700000018000e-01  0.0
 -9.857146590000e-02  -1.700000018000e-01  0.0
 -9.000002890000e-02  -1.700000018000e-01  0.0
 -8.142859190000e-02  -1.700000018000e-01  0.0
 -7.285715490000e-02  -1.700000018000e-01  0.0
 -6.428571790000e-02  -1.700000018000e-01  0.0
 -1.037143230360e-01  -1.630000025200e-01  0.0
 -9.514288603600e-02  -1.630000025200e-01  0.0
 -8.657144903600e-02  -1.630000025200e-01  0.0
 -7.800001203600e-02  -1.630000025200e-01  0.0
 -6.942857503600e-02  -1.630000025200e-01  0.0
 -1.002857431720e-01  -1.560000032400e-01  0.0
 -9.171430617200e-02  -1.560000032400e-01  0.0
 -8.314286917200e-02  -1.560000032400e-01  0.0
 -7.457143217200e-02  -1.560000032400e-01  0.0
 -9.685716330800e-02  -1.490000039600e-01  0.0
 -8.828572630800e-02  -1.490000039600e-01  0.0
 -7.971428930800e-02  -1.490000039600e-01  0.0
 -9.342858344400e-02  -1.420000046800e-01  0.0
 -8.485714644400e-02  -1.420000046800e-01  0.0
 -9.000000358000e-02  -1.350000054000e-01  0.0
 -1.312499940000e-01  -2.000000030000e-01  0.0
 -1.264285757800e-01  -1.940000027600e-01  0.0
 -1.216071575600e-01  -1.880000025200e-01  0.0
 -1.167857393400e-01  -1.820000022800e-01  0.0
 -1.119643211200e-01  -1.760000020400e-01  0.0
 -1.071429029000e-01  -1.700000018000e-01  0.0
 -1.349999964000e-01  -1.940000027600e-01  0.0
 -1.301785781800e-01  -1.880000025200e-01  0.0
 -1.253571599600e-01  -1.820000022800e-01  0.0
 -1.205357417400e-01  -1.760000020400e-01  0.0
 -1.157143235200e-01  -1.700000018000e-01  0.0
 -1.387499988000e-01  -1.880000025200e-01  0.0
 -1.339285805800e-01  -1.820000022800e-01  0.0
 -1.291071623600e-01  -1.760000020400e-01  0.0
 -1.242857441400e-01  -1.700000018000e-01  0.0
 -1.425000012000e-01  -1.820000022800e-01  0.0
 -1.376785829800e-01  -1.760000020400e-01  0.0
 -1.328571647600e-01  -1.700000018000e-01  0.0
 -1.462500036000e-01  -1.760000020400e-01  0.0
 -1.414285853800e-01  -1.700000018000e-01  0.0
 -1.500000060000e-01  -1.700000018000e-01  0.0
[...]
POINT_DATA 7854
SCALARS field1 double 1
LOOKUP_TABLE default
 -4.344217774202e-06 
  1.512508938200e-02 
  1.841020655585e-02 
  1.933643748182e-02 
  2.155910774851e-02 
  2.543987578389e-02 
 -3.187705473405e-06 
  1.247183109832e-02 
  1.515868325854e-02 
  1.703350058424e-02 
  2.085638932236e-02 
  2.127539591635e-06 
  9.532331407577e-03 
  1.231183189355e-02 
  1.602855625234e-02 
  7.096049372649e-06 
  6.860214416324e-03 
  1.094321916169e-02 
 -3.040720835590e-06 
  5.594346090437e-03 
  2.284164900582e-06 
  4.919122809032e-02 
  4.716365825327e-02 
  4.350513508819e-02 
  3.643616166180e-02 
  2.316426064082e-02 
 -5.355857224272e-07 
  4.801816182151e-02 
  4.435561609696e-02 
  3.721320000155e-02 
  2.369993473920e-02 
 -1.989177036955e-07 
  4.515049208529e-02 
  3.793976558770e-02 
  2.420540339220e-02 
 -2.282468805712e-07 
  3.861819883243e-02 
  2.467868823080e-02 
 -2.227179089036e-07 
  2.511820738393e-02 
 -1.160282485388e-07 
 -3.380183434231e-07 
  2.544154962786e-02 
  2.928787687164e-02 
  3.336921956065e-02 
  3.689440557510e-02 
  3.972977902513e-02 
  4.201955205406e-02 
  2.976572673622e-02 
  3.315851696190e-02 
  3.656459458661e-02 
  3.948051430865e-02 
  4.180907363927e-02 
  3.383604206098e-02 
  3.681579282785e-02 
  3.962312467881e-02 
  4.195671389666e-02 
  3.765119712205e-02 
  4.025704536350e-02 
  4.250879076316e-02 
  4.121190922685e-02 
  4.346558189912e-02 
  4.452058221841e-02 
  4.201848749913e-02 
  3.972992340342e-02 
  3.689330938600e-02 
  3.336975721114e-02 
  2.928736162671e-02 
  2.544366510941e-02 
  4.021553440257e-02 
  3.746045403805e-02 
  3.405148538104e-02 
  2.983910605190e-02 
  2.500478588139e-02 
  3.838050490599e-02 
  3.519298227646e-02 
  3.121632278219e-02 
  2.627000461364e-02 
  3.661272840015e-02 
  3.301774204962e-02 
  2.846332448294e-02 
  3.497962395817e-02 
  3.094765271541e-02 
  3.334168759816e-02 
  4.908771061883e-02 
  4.915855963221e-02 
  4.881902516779e-02 
  4.800441171487e-02 
  4.661220738074e-02 
  4.452181113988e-02 
  4.803072498133e-02 
  4.759499739278e-02 
  4.672995241306e-02 
  4.536991148001e-02 
  4.346517336017e-02 
  4.676176728029e-02 
  4.584335367414e-02 
  4.444196546350e-02 
  4.250818690329e-02 
  4.532021709102e-02 
  4.391257694890e-02 
  4.195664894175e-02 
  4.372801438776e-02 
  4.180965461591e-02 
  4.201762484129e-02 
  5.032398928000e-02 
  4.116516117179e-02 
  4.261571681684e-02 
  4.335566544784e-02 
  4.665069239790e-02 
  4.594284702820e-04 
  4.448571672741e-02 
  4.452736481117e-02 
  4.354435800764e-02 
  4.385774406762e-02 
  4.099140104930e-02 
  4.433183168586e-02 
  4.468145513431e-02 
  4.334650921110e-02 
  4.426072714188e-02 
  4.426845909276e-02 
  4.395445463647e-02 
  4.267713120609e-02 
  4.473142266311e-02 
  4.252142739359e-02 
  4.616498047999e-02 
  3.334202215345e-02 
  3.594055581049e-02 
  3.813421786867e-02 
  4.005873696692e-02 
  4.177313462998e-02 
  4.328288143940e-02 
  3.497842548662e-02 
  3.733660189373e-02 
  3.941065070681e-02 
  4.123505635851e-02 
  4.283410992576e-02 
  3.661252975725e-02 
  3.884451070597e-02 
  4.078588278104e-02 
  4.246216487375e-02 
  3.838031027688e-02 
  4.043681165587e-02 
  4.219428945834e-02 
  4.021411545691e-02 
  4.203657362902e-02 
  4.201829493083e-02 
  4.517569279751e-02 
  4.388848469373e-02 
  4.447449649083e-02 
  4.459328063954e-02 
  4.462336611094e-02 
  4.622576372570e-02 
  4.425056483036e-02 
  4.426542577632e-02 
  4.454395323994e-02 
  4.449234258258e-02 
  4.468268067972e-02 
  4.433281056036e-02 
  4.448882441681e-02 
  4.455506215087e-02 
  4.445535679966e-02 
  4.474320636569e-02 
  4.455254295277e-02 
  4.452197702264e-02 
  4.471719808936e-02 
  4.464704060635e-02 
  4.422744069786e-02 
  4.282118102988e-02 
  4.428037642002e-02 
  4.563365341446e-02 
  4.690258895910e-02 
  4.808692446673e-02 
  4.919364487564e-02 
  4.405287525413e-02 
  4.543672060642e-02 
  4.674400109689e-02 
  4.797652213494e-02 
  4.913517202154e-02 
  4.502630145680e-02 
  4.634245138405e-02 
  4.760230955244e-02 
  4.880792493513e-02 
  4.593278369422e-02 
  4.719104167047e-02 
  4.841836980083e-02 
  4.680771968735e-02 
  4.802709735316e-02 
  4.766176735867e-02 
  5.233201768851e-07 
  1.965537650103e-02 
  3.113797896180e-02 
  3.743126888641e-02 
  4.083559027355e-02 
  4.282158122240e-02 
  1.857720404696e-02 
  2.959456362300e-02 
  3.575777473123e-02 
  3.918423946865e-02 
  4.127036433599e-02 
  2.785657189542e-02 
  3.389667061786e-02 
  3.737276042164e-02 
  3.957191461014e-02 
  3.180009048692e-02 
  3.535814531366e-02 
  3.770984758549e-02 
  3.309095913481e-02 
  3.564712710323e-02 
  3.334178428125e-02 
  4.328592155723e-02 
  4.415549281359e-02 
  4.502056329001e-02 
  4.589262013237e-02 
  4.676916082285e-02 
  4.766115083480e-02 
  4.412690922624e-02 
  4.489457230605e-02 
  4.568195131896e-02 
  4.649304164174e-02 
  4.732881969371e-02 
  4.489221032700e-02 
  4.557019914351e-02 
  4.628458230754e-02 
  4.704147675909e-02 
  4.557187347570e-02 
  4.616282516614e-02 
  4.680990969759e-02 
  4.614700022745e-02 
  4.665296229601e-02 
  4.658724383825e-02 
  4.766091674489e-02 
  4.676932441747e-02 
  4.589259087551e-02 
  4.502065222978e-02 
  4.415551694448e-02 
  4.328621851169e-02 
  4.680819870243e-02 
  4.589087612007e-02 
  4.496456445237e-02 
  4.402729082439e-02 
  4.307470397372e-02 
  4.593265929336e-02 
  4.496704662383e-02 
  4.397737136705e-02 
  4.296000749663e-02 
  4.502658490396e-02 
  4.400292993630e-02 
  4.293915222283e-02 
  4.405302465925e-02 
  4.296295502425e-02 
  4.282202161517e-02 
  5.038153855536e-02 
  4.932486654386e-02 
  4.846077811781e-02 
  4.774159238998e-02 
  4.713019372746e-02 
  4.658735489077e-02 
  5.013865125737e-02 
  4.909175598410e-02 
  4.818475381439e-02 
  4.738129565408e-02 
  4.665289040380e-02 
  4.968960866106e-02 
  4.864636621690e-02 
  4.769475923020e-02 
  4.680987956878e-02 
  4.909768360020e-02 
  4.804395172866e-02 
  4.704143548026e-02 
  4.840814472975e-02 
  4.732870249534e-02 
  4.766157706484e-02 
  4.328493283969e-02 
  4.412695526022e-02 
  4.489214848956e-02 
  4.557182884224e-02 
  4.614716864930e-02 
  4.658692148510e-02 
  4.283370882707e-02 
  4.375287542277e-02 
  4.459090392951e-02 
  4.532977692063e-02 
  4.595075624872e-02 
  4.246244374512e-02 
  4.347470001930e-02 
  4.439230409451e-02 
  4.519951323377e-02 
  4.219360308654e-02 
  4.330468425317e-02 
  4.431030690509e-02 
  4.203660575347e-02 
  4.325658813069e-02 
  4.201724528337e-02 
  5.038109321886e-02 
  5.013864402278e-02 
  4.968956629951e-02 
  4.909772865101e-02 
  4.840798135326e-02 
  4.766250099538e-02 
  5.126186197470e-02 
  5.082999701102e-02 
  5.025269967496e-02 
  4.958175570347e-02 
  4.885150608634e-02 
  5.210860312738e-02 
  5.149673220670e-02 
  5.080058630292e-02 
  5.006071877051e-02 
  5.289021331455e-02 
  5.211703716276e-02 
  5.131902023718e-02 
  5.358826351823e-02 
  5.267562272399e-02 
  5.418399933371e-02 
  4.282194846982e-02 
  4.296333765293e-02 
  4.293942351091e-02 
  4.296005181682e-02 
  4.307470943201e-02 
  4.328500369377e-02 
  4.127061574562e-02 
  4.141517145568e-02 
  4.144125483163e-02 
  4.154524389355e-02 
  4.177286153055e-02 
  3.957205315105e-02 
  3.974685992573e-02 
  3.984495825493e-02 
  4.005887621924e-02 
  3.771005089712e-02 
  3.793101734329e-02 
  3.813363942616e-02 
  3.564728087044e-02 
  3.594027192376e-02 
  3.334185758668e-02 
 -5.085722365770e-08 
 -2.041401147905e-07 
 -1.331463034673e-07 
 -2.467095285206e-07 
 -1.937880661456e-07 
 -8.310139938009e-07 
  2.746290867407e-02 
  2.738636475277e-02 
  2.717067743829e-02 
  2.684585041504e-02 
  2.644795424069e-02 
  4.227752115767e-02 
  4.212650374696e-02 
  4.176253605241e-02 
  4.123968634148e-02 
  4.949318234294e-02 
  4.925924648326e-02 
  4.878928327171e-02 
  5.268306855367e-02 
  5.235573623149e-02 
  5.399627130292e-02 
  4.908678922778e-02 
  4.802938924237e-02 
  4.676146924688e-02 
  4.532070855326e-02 
  4.372827606469e-02 
  4.201730035710e-02 
  4.799884603892e-02 
  4.705989363950e-02 
  4.594556889249e-02 
  4.467007610306e-02 
  4.325647960490e-02 
  4.721416402243e-02 
  4.640763256562e-02 
  4.543210998161e-02 
  4.431044330050e-02 
  4.672414107861e-02 
  4.604508193249e-02 
  4.519969226655e-02 
  4.652883809419e-02 
  4.595076525598e-02 
  4.658659930276e-02 
  5.723916729511e-02 
  5.604214436243e-02 
  5.407486506403e-02 
  5.211465233729e-02 
  5.043806785713e-02 
  4.908886172825e-02 
  5.788185108571e-02 
  5.574749436182e-02 
  5.355387405991e-02 
  5.161238015388e-02 
  4.995942585762e-02 
  5.717202997795e-02 
  5.476003718041e-02 
  5.257271360400e-02 
  5.065886384545e-02 
  5.575886858657e-02 
  5.334728166419e-02 
  5.119532378067e-02 
  5.396067598772e-02 
  5.159186756553e-02 
  5.187844919846e-02 
  5.723965324017e-02 
  5.520355431226e-02 
  5.291452117964e-02 
  5.037199201608e-02 
  4.757397588397e-02 
  4.452054086928e-02 
  5.604216058385e-02 
  5.404862807266e-02 
  5.180991962130e-02 
  4.933267596510e-02 
  4.661196448545e-02 
  5.407573395418e-02 
  5.227166250212e-02 
  5.024112760999e-02 
  4.800376520718e-02 
  5.211390370737e-02 
  5.056704247943e-02 
  4.882024528051e-02 
  5.043752774928e-02 
  4.915871623458e-02 
  4.908942195887e-02 
  5.723945596274e-02 
  5.788108635588e-02 
  5.717154519983e-02 
  5.575913619978e-02 
  5.396107903694e-02 
  5.187805999818e-02 
  5.902112659608e-02 
  5.936254593830e-02 
  5.827779947349e-02 
  5.650180898032e-02 
  5.439868358773e-02 
  6.054704742786e-02 
  6.060540228392e-02 
  5.917727387562e-02 
  5.707547658472e-02 
  6.181791405570e-02 
  6.160624396825e-02 
  5.986385508041e-02 
  6.283568290649e-02 
  6.236800317937e-02 
  6.359796710142e-02 
  5.187927761132e-02 
  5.159094731291e-02 
  5.119509638276e-02 
  5.065959923387e-02 
  4.996046783473e-02 
  4.908632379027e-02 
  4.977071851742e-02 
  4.967304674948e-02 
  4.950647654301e-02 
  4.922328682726e-02 
  4.878154498665e-02 
  4.777224304093e-02 
  4.791839286879e-02 
  4.802006193344e-02 
  4.801401978925e-02 
  4.586104931532e-02 
  4.632140981723e-02 
  4.674828598205e-02 
  4.403889229690e-02 
  4.489694560019e-02 
  4.232984010704e-02 
  4.083093108857e-02 
  4.341864904440e-02 
  4.580139154707e-02 
  4.798508620283e-02 
  5.000074644180e-02 
  5.187935302474e-02 
  4.064771527546e-02 
  4.334590676689e-02 
  4.572899717933e-02 
  4.785719967809e-02 
  4.977058450911e-02 
  4.073299980200e-02 
  4.343480138800e-02 
  4.575397092106e-02 
  4.777213454876e-02 
  4.106271298712e-02 
  4.367364292149e-02 
  4.586122657611e-02 
  4.160735493931e-02 
  4.403892619952e-02 
  4.232993967553e-02 
  5.187983108736e-02 
  5.207328760832e-02 
  5.222519045664e-02 
  5.231959653138e-02 
  5.236384272271e-02 
  5.236159075272e-02 
  5.439848655554e-02 
  5.473576729070e-02 
  5.494453675418e-02 
  5.503307206588e-02 
  5.501221552127e-02 
  5.707658242151e-02 
  5.751344381908e-02 
  5.776362448248e-02 
  5.783692736130e-02 
  5.986308960720e-02 
  6.036563222848e-02 
  6.063950170797e-02 
  6.236837352918e-02 
  6.290570772743e-02 
  6.359603677471e-02 
  4.908481329669e-02 
  4.821536947966e-02 
  4.744982824950e-02 
  4.681238763947e-02 
  4.633422149874e-02 
  4.611587877672e-02 
  4.878190581068e-02 
  4.771324817760e-02 
  4.674383898526e-02 
  4.588601287325e-02 
  4.520358528502e-02 
  4.801367647416e-02 
  4.671567012136e-02 
  4.547580114554e-02 
  4.431712289420e-02 
  4.674807034447e-02 
  4.513579582261e-02 
  4.350692752829e-02 
  4.489689232935e-02 
  4.282975396804e-02 
  4.233017777322e-02 
  4.695029643223e-02 
  4.488919587161e-02 
  4.413696547483e-02 
  4.429434035061e-02 
  4.530228395642e-02 
  4.607986843677e-02 
  4.445469827653e-02 
  4.453500176129e-02 
  4.456963305361e-02 
  4.528913728135e-02 
  4.653069275086e-02 
  4.437553646178e-02 
  4.411932278698e-02 
  4.391380398294e-02 
  4.350870109523e-02 
  4.370552714170e-02 
  4.434531432909e-02 
  4.338646191673e-02 
  3.639246620582e-02 
  4.173473856612e-02 
  2.110534835829e-04 
  4.007074873375e-02 
  4.207852628054e-02 
  4.354534085302e-02 
  4.465361617744e-02 
  4.548845847065e-02 
  4.612019447973e-02 
  4.212913885738e-02 
  4.368458557158e-02 
  4.480241241351e-02 
  4.563310583961e-02 
  4.623832697168e-02 
  4.433739659726e-02 
  4.540513023429e-02 
  4.614376061841e-02 
  4.667517363410e-02 
  4.662505609939e-02 
  4.718526634653e-02 
  4.752907281447e-02 
  4.891331135245e-02 
  4.896645624512e-02 
  5.112744868623e-02 
  4.611560038243e-02 
  4.633425664831e-02 
  4.681229957488e-02 
  4.745004577058e-02 
  4.821533857777e-02 
  4.908529707559e-02 
  4.681138011515e-02 
  4.681826857657e-02 
  4.705928955510e-02 
  4.746586767139e-02 
  4.799867392740e-02 
  4.716446646672e-02 
  4.698749486346e-02 
  4.702496325428e-02 
  4.721362082355e-02 
  4.721703913092e-02 
  4.688210960564e-02 
  4.672447036960e-02 
  4.701698873192e-02 
  4.652867247256e-02 
  4.658722498135e-02 
  1.647037129816e-02 
  2.027620690397e-02 
  2.359568002189e-02 
  2.647745352213e-02 
  2.899100338134e-02 
  3.120921400719e-02 
  1.796225321076e-02 
  2.164569509025e-02 
  2.482812325238e-02 
  2.757030272307e-02 
  2.993698093969e-02 
  1.986174125136e-02 
  2.343010709253e-02 
  2.641856947752e-02 
  2.896086089587e-02 
  2.221412077416e-02 
  2.559470411721e-02 
  2.833463214829e-02 
  2.501383370832e-02 
  2.810511917925e-02 
  2.818695838505e-02 
  3.120628140858e-02 
  3.424288924325e-02 
  3.677146170022e-02 
  3.890177124997e-02 
  4.073042425986e-02 
  4.233139950940e-02 
  3.238822510488e-02 
  3.519518527642e-02 
  3.751357264367e-02 
  3.947068633297e-02 
  4.114703425555e-02 
  3.394360736843e-02 
  3.641406465262e-02 
  3.845982890055e-02 
  4.019662723505e-02 
  3.580166857519e-02 
  3.786177104353e-02 
  3.957992555696e-02 
  3.787215245968e-02 
  3.948016795106e-02 
  4.007231721714e-02 
  4.006893619051e-02 
  3.871928557437e-02 
  3.699979783916e-02 
  3.482457849343e-02 
  3.197760418502e-02 
  2.818769773702e-02 
  3.787134147059e-02 
  3.614303730718e-02 
  3.403232835911e-02 
  3.141061967978e-02 
  2.810514404652e-02 
  3.580161551278e-02 
  3.375893886280e-02 
  3.130484811185e-02 
  2.833448964752e-02 
  3.394331361291e-02 
  3.166236214070e-02 
  2.896059542613e-02 
  3.238753306216e-02 
  2.993716831699e-02 
  3.120881692750e-02 
  3.120522530632e-02 
  3.249394282801e-02 
  3.434148381307e-02 
  3.645550498557e-02 
  3.865210961946e-02 
  4.083022042210e-02 
  3.424319399668e-02 
  3.533934936849e-02 
  3.690155147063e-02 
  3.872054205938e-02 
  4.064746416357e-02 
  3.677152634456e-02 
  3.774259247862e-02 
  3.911835399569e-02 
  4.073255654998e-02 
  3.890157303978e-02 
  3.980775632236e-02 
  4.106251223134e-02 
  4.073058052663e-02 
  4.160744006423e-02 
  4.233015198123e-02 
  5.038151681968e-02 
  5.079096465603e-02 
  5.111282157859e-02 
  5.132894200759e-02 
  5.138514790559e-02 
  5.112830887973e-02 
  4.958639187719e-02 
  4.974041199549e-02 
  4.973082006944e-02 
  4.950339945627e-02 
  4.896631454148e-02 
  4.872277596614e-02 
  4.859679819440e-02 
  4.822677028104e-02 
  4.752930777918e-02 
  4.782883837309e-02 
  4.741184528605e-02 
  4.667498146984e-02 
  4.694415081073e-02 
  4.623843167920e-02 
  4.611955066678e-02 
  4.007361563534e-02 
  3.947983476438e-02 
  3.958023327198e-02 
  4.019651122797e-02 
  4.114715853595e-02 
  4.233097307304e-02 
  4.207811059606e-02 
  4.150867988769e-02 
  4.154875972993e-02 
  4.202983010896e-02 
  4.283046671521e-02 
  4.354572048116e-02 
  4.307024584600e-02 
  4.309599333946e-02 
  4.350766545743e-02 
  4.465345963182e-02 
  4.427506989890e-02 
  4.431798342827e-02 
  4.548871292876e-02 
  4.520395722651e-02 
  4.611809937436e-02 
  5.038205826708e-02 
  4.958610286761e-02 
  4.872247221168e-02 
  4.782825488725e-02 
  4.694377457150e-02 
  4.611704926461e-02 
  4.932482621543e-02 
  4.869934522610e-02 
  4.805269144991e-02 
  4.741213364103e-02 
  4.681119661998e-02 
  4.846092845665e-02 
  4.800893448424e-02 
  4.756935995620e-02 
  4.716460737786e-02 
  4.774149428393e-02 
  4.746094976439e-02 
  4.721700227559e-02 
  4.713032856055e-02 
  4.701739490987e-02 
  4.658689740608e-02 
  3.120740952147e-02 
  2.899151003560e-02 
  2.647723295939e-02 
  2.359533892894e-02 
  2.027624115582e-02 
  1.647141020602e-02 
  2.972454409782e-02 
  2.731871070111e-02 
  2.457783366993e-02 
  2.145630669169e-02 
  1.792249985787e-02 
  2.860521649922e-02 
  2.606973827334e-02 
  2.320169771791e-02 
  1.996433398863e-02 
  2.789277166591e-02 
  2.531602219139e-02 
  2.242951205381e-02 
  2.761638994113e-02 
  2.508926162591e-02 
  2.776651064238e-02 
  5.418507061090e-02 
  5.267565439994e-02 
  5.131936071515e-02 
  5.006060679430e-02 
  4.885170415663e-02 
  4.766197972730e-02 
  5.306702535879e-02 
  5.172382169280e-02 
  5.045766623087e-02 
  4.923517804011e-02 
  4.802748967219e-02 
  5.202832395007e-02 
  5.079751400660e-02 
  4.960229822533e-02 
  4.841832607496e-02 
  5.110026259248e-02 
  4.996122857170e-02 
  4.880842370102e-02 
  5.028620046424e-02 
  4.913521326278e-02 
  4.919728272692e-02 
  5.038433114666e-02 
  4.436901712103e-02 
  4.430493890813e-02 
  4.425461318086e-02 
  4.469046557950e-02 
  4.630800760654e-02 
  4.544359473731e-02 
  4.433099653866e-02 
  4.444888923420e-02 
  4.449911667712e-02 
  4.475056644546e-02 
  4.433140564885e-02 
  4.462669360620e-02 
  4.451208623206e-02 
  4.488870087515e-02 
  4.402829726677e-02 
  4.423602906590e-02 
  4.678319978495e-02 
  4.495332901818e-02 
  4.687494493622e-02 
  4.648508610975e-02 
  5.692011068150e-02 
  5.598411363430e-02 
  5.519867336689e-02 
  5.455638953145e-02 
  5.400898676499e-02 
  5.321036744746e-02 
  5.739211539618e-02 
  5.637846094541e-02 
  5.553617982860e-02 
  5.486059893815e-02 
  5.427437209732e-02 
  5.775294669946e-02 
  5.667198004528e-02 
  5.579079992140e-02 
  5.508949661334e-02 
  5.798875712580e-02 
  5.686259552694e-02 
  5.595945786002e-02 
  5.809862205840e-02 
  5.694972938019e-02 
  5.808264834928e-02 
  5.691946548901e-02 
  5.659129016136e-02 
  5.614812885882e-02 
  5.559161917441e-02 
  5.493010475290e-02 
  5.418405023082e-02 
  5.508445210544e-02 
  5.469703302277e-02 
  5.422711998754e-02 
  5.368197280011e-02 
  5.306707718406e-02 
  5.350987140665e-02 
  5.306842486641e-02 
  5.257280888857e-02 
  5.202811879683e-02 
  5.211704483660e-02 
  5.163190622498e-02 
  5.110030340348e-02 
  5.078871137489e-02 
  5.028590642044e-02 
  4.919827342157e-02 
  5.038104263577e-02 
  5.160439669924e-02 
  5.314382487795e-02 
  5.513761987953e-02 
  5.773916635283e-02 
  6.108985884315e-02 
  5.079071721535e-02 
  5.213876305019e-02 
  5.391535594009e-02 
  5.629236716864e-02 
  5.940907861545e-02 
  5.111244425172e-02 
  5.263453568673e-02 
  5.471956017815e-02 
  5.753019498184e-02 
  5.132871014645e-02 
  5.306771445243e-02 
  5.548696107116e-02 
  5.138521771211e-02 
  5.333210837215e-02 
  5.112687676130e-02 
  6.109014098875e-02 
  5.773922176391e-02 
  5.513772782368e-02 
  5.314388073163e-02 
  5.160447639323e-02 
  5.038090897350e-02 
  5.939428586887e-02 
  5.662296456208e-02 
  5.442825447890e-02 
  5.268243833775e-02 
  5.126143346695e-02 
  5.784830745946e-02 
  5.555279187309e-02 
  5.367182208740e-02 
  5.210820483925e-02 
  5.648360692574e-02 
  5.454310356603e-02 
  5.288958302397e-02 
  5.527130862938e-02 
  5.358752425352e-02 
  5.418248503992e-02 
  6.772328912548e-02 
  6.690412789532e-02 
  6.581070485258e-02 
  6.445616359198e-02 
  6.286614614050e-02 
  6.109253481072e-02 
  6.385498216834e-02 
  6.300199188037e-02 
  6.195398460260e-02 
  6.073925445654e-02 
  5.939404376248e-02 
  6.065990183405e-02 
  5.983573715796e-02 
  5.889118486159e-02 
  5.784863505443e-02 
  5.807322514759e-02 
  5.731542985293e-02 
  5.648330967837e-02 
  5.595972572204e-02 
  5.527123576682e-02 
  5.418118866420e-02 
  5.898581247750e-02 
  5.871698033079e-02 
  5.705185426598e-02 