# vtk DataFile Version 2
NuDG++ 2D simulation
ASCII
DATASET UNSTRUCTURED_GRID

POINTS 7854 double
 -1.656250060000e-01  -2.000000030000e-01  0.0
 -1.725000054000e-01  -1.908888817000e-01  0.0
 -1.793750048000e-01  -1.817777604000e-01  0.0
 -1.862500042000e-01  -1.726666391000e-01  0.0
 -1.931250036000e-01  -1.635555178000e-01  0.0
 -2.000000030000e-01  -1.544443965000e-01  0.0
 -1.725000054000e-01  -2.000000030000e-01  0.0
 -1.793750048000e-01  -1.908888817000e-01  0.0
 -1.862500042000e-01  -1.817777604000e-01  0.0
 -1.931250036000e-01  -1.726666391000e-01  0.0
 -2.000000030000e-01  -1.635555178000e-01  0.0
 -1.793750048000e-01  -2.000000030000e-01  0.0
 -1.862500042000e-01  -1.908888817000e-01  0.0
 -1.931250036000e-01  -1.817777604000e-01  0.0
 -2.000000030000e-01  -1.726666391000e-01  0.0
 -1.862500042000e-01  -2.000000030000e-01  0.0
 -1.931250036000e-01  -1.908888817000e-01  0.0
 -2.000000030000e-01  -1.817777604000e-01  0.0
 -1.931250036000e-01  -2.000000030000e-01  0.0
 -2.000000030000e-01  -1.908888817000e-01  0.0
 -2.000000030000e-01  -2.000000030000e-01  0.0
 -6.428571790000e-02  -1.700000018000e-01  0.0
 -7.080357372400e-02  -1.760000020400e-01  0.0
 -7.732142954800e-02  -1.820000022800e-01  0.0
 -8.383928537200e-02  -1.880000025200e-01  0.0
 -9.035714119600e-02  -1.940000027600e-01  0.0
 -9.687499702000e-02  -2.000000030000e-01  0.0
 -6.392857432000e-02  -1.760000020400e-01  0.0
 -7.044643014400e-02  -1.820000022800e-01  0.0
 -7.696428596800e-02  -1.880000025200e-01  0.0
 -8.348214179200e-02  -1.940000027600e-01  0.0
 -8.999999761600e-02  -2.000000030000e-01  0.0
 -6.357143074000e-02  -1.820000022800e-01  0.0
 -7.008928656400e-02  -1.880000025200e-01  0.0
 -7.660714238800e-02  -1.940000027600e-01  0.0
 -8.312499821200e-02  -2.000000030000e-01  0.0
 -6.321428716000e-02  -1.880000025200e-01  0.0
 -6.973214298400e-02  -1.940000027600e-01  0.0
 -7.624999880800e-02  -2.000000030000e-01  0.0
 -6.285714358000e-02  -1.940000027600e-01  0.0
 -6.937499940400e-02  -2.000000030000e-01  0.0
 -6.250000000000e-02  -2.000000030000e-01  0.0
 -2.000000030000e-01  -1.544443965000e-01  0.0
 -1.900000036000e-01  -1.478412374800e-01  0.0
 -1.800000042000e-01  -1.412380784600e-01  0.0
 -1.700000048000e-01  -1.346349194400e-01  0.0
 -1.600000054000e-01  -1.280317604200e-01  0.0
 -1.500000060000e-01  -1.214286014000e-01  0.0
 -2.000000030000e-01  -1.453332975600e-01  0.0
 -1.900000036000e-01  -1.387301385400e-01  0.0
 -1.800000042000e-01  -1.321269795200e-01  0.0
 -1.700000048000e-01  -1.255238205000e-01  0.0
 -1.600000054000e-01  -1.189206614800e-01  0.0
 -2.000000030000e-01  -1.362221986200e-01  0.0
 -1.900000036000e-01  -1.296190396000e-01  0.0
 -1.800000042000e-01  -1.230158805800e-01  0.0
 -1.700000048000e-01  -1.164127215600e-01  0.0
 -2.000000030000e-01  -1.271110996800e-01  0.0
 -1.900000036000e-01  -1.205079406600e-01  0.0
 -1.800000042000e-01  -1.139047816400e-01  0.0
 -2.000000030000e-01  -1.180000007400e-01  0.0
 -1.900000036000e-01  -1.113968417200e-01  0.0
 -2.000000030000e-01  -1.088889018000e-01  0.0
 -1.500000060000e-01  -1.214286014000e-01  0.0
 -1.600000054000e-01  -1.280317604200e-01  0.0
 -1.700000048000e-01  -1.346349194400e-01  0.0
 -1.800000042000e-01  -1.412380784600e-01  0.0
 -1.900000036000e-01  -1.478412374800e-01  0.0
 -2.000000030000e-01  -1.544443965000e-01  0.0
 -1.500000060000e-01  -1.311428814800e-01  0.0
 -1.600000054000e-01  -1.377460405000e-01  0.0
 -1.700000048000e-01  -1.443491995200e-01  0.0
 -1.800000042000e-01  -1.509523585400e-01  0.0
 -1.900000036000e-01  -1.575555175600e-01  0.0
 -1.500000060000e-01  -1.408571615600e-01  0.0
 -1.600000054000e-01  -1.474603205800e-01  0.0
 -1.700000048000e-01  -1.540634796000e-01  0.0
 -1.800000042000e-01  -1.606666386200e-01  0.0
 -1.500000060000e-01  -1.505714416400e-01  0.0
 -1.600000054000e-01  -1.571746006600e-01  0.0
 -1.700000048000e-01  -1.637777596800e-01  0.0
 -1.500000060000e-01  -1.602857217200e-01  0.0
 -1.600000054000e-01  -1.668888807400e-01  0.0
 -1.500000060000e-01  -1.700000018000e-01  0.0
 -1.500000060000e-01  -7.285714149000e-02  0.0
 -1.600000054000e-01  -8.006349355200e-02  0.0
 -1.700000048000e-01  -8.726984561400e-02  0.0
 -1.800000042000e-01  -9.447619767600e-02  0.0
 -1.900000036000e-01  -1.016825497380e-01  0.0
 -2.000000030000e-01  -1.088889018000e-01  0.0
 -1.500000060000e-01  -8.257143347200e-02  0.0
 -1.600000054000e-01  -8.977778553400e-02  0.0
 -1.700000048000e-01  -9.698413759600e-02  0.0
 -1.800000042000e-01  -1.041904896580e-01  0.0
 -1.900000036000e-01  -1.113968417200e-01  0.0
 -1.500000060000e-01  -9.228572545400e-02  0.0
 -1.600000054000e-01  -9.949207751600e-02  0.0
 -1.700000048000e-01  -1.066984295780e-01  0.0
 -1.800000042000e-01  -1.139047816400e-01  0.0
 -1.500000060000e-01  -1.020000174360e-01  0.0
 -1.600000054000e-01  -1.092063694980e-01  0.0
 -1.700000048000e-01  -1.164127215600e-01  0.0
 -1.500000060000e-01  -1.117143094180e-01  0.0
 -1.600000054000e-01  -1.189206614800e-01  0.0
 -1.500000060000e-01  -1.214286014000e-01  0.0
  1.832975030000e+00  -4.625000060000e-02  0.0
  1.841380024000e+00  -7.700000108000e-02  0.0
  1.849785018000e+00  -1.077500015600e-01  0.0
  1.858190012000e+00  -1.385000020400e-01  0.0
  1.866595006000e+00  -1.692500025200e-01  0.0
  1.875000000000e+00  -2.000000030000e-01  0.0
  1.866380024000e+00  -5.649999976400e-02  0.0
  1.874785018000e+00  -8.725000024400e-02  0.0
  1.883190012000e+00  -1.180000007240e-01  0.0
  1.891595006000e+00  -1.487500012040e-01  0.0
  1.900000000000e+00  -1.795000016840e-01  0.0
  1.899785018000e+00  -6.674999892800e-02  0.0
  1.908190012000e+00  -9.749999940800e-02  0.0
  1.916595006000e+00  -1.282499998880e-01  0.0
  1.925000000000e+00  -1.590000003680e-01  0.0
  1.933190012000e+00  -7.699999809200e-02  0.0
  1.941595006000e+00  -1.077499985720e-01  0.0
  1.950000000000e+00  -1.384999990520e-01  0.0
  1.966595006000e+00  -8.724999725600e-02  0.0
  1.975000000000e+00  -1.179999977360e-01  0.0
  2.000000000000e+00  -9.749999642000e-02  0.0
 -1.500000060000e-01  -1.700000018000e-01  0.0
 -1.444000050800e-01  -1.630000025200e-01  0.0
 -1.388000041600e-01  -1.560000032400e-01  0.0
 -1.332000032400e-01  -1.490000039600e-01  0.0
 -1.276000023200e-01  -1.420000046800e-01  0.0
 -1.220000014000e-01  -1.350000054000e-01  0.0
 -1.500000060000e-01  -1.602857217200e-01  0.0
 -1.444000050800e-01  -1.532857224400e-01  0.0
 -1.388000041600e-01  -1.462857231600e-01  0.0
 -1.332000032400e-01  -1.392857238800e-01  0.0
 -1.276000023200e-01  -1.322857246000e-01  0.0
 -1.500000060000e-01  -1.505714416400e-01  0.0
 -1.444000050800e-01  -1.435714423600e-01  0.0
 -1.388000041600e-01  -1.365714430800e-01  0.0
 -1.332000032400e-01  -1.295714438000e-01  0.0
 -1.500000060000e-01  -1.408571615600e-01  0.0
 -1.444000050800e-01  -1.338571622800e-01  0.0
 -1.388000041600e-01  -1.268571630000e-01  0.0
 -1.500000060000e-01  -1.311428814800e-01  0.0
 -1.444000050800e-01  -1.241428822000e-01  0.0
 -1.500000060000e-01  -1.214286014000e-01  0.0
  2.849999964000e-01  -2.333333530000e-02  0.0
  2.844999968800e-01  -4.666666836000e-02  0.0
  2.839999973600e-01  -7.000000142000e-02  0.0
  2.834999978400e-01  -9.333333448000e-02  0.0
  2.829999983200e-01  -1.166666675400e-01  0.0
  2.824999988000e-01  -1.400000006000e-01  0.0
  2.979999959200e-01  -3.266666830000e-02  0.0
  2.974999964000e-01  -5.600000136000e-02  0.0
  2.969999968800e-01  -7.933333442000e-02  0.0
  2.964999973600e-01  -1.026666674800e-01  0.0
  2.959999978400e-01  -1.260000005400e-01  0.0
  3.109999954400e-01  -4.200000130000e-02  0.0
  3.104999959200e-01  -6.533333436000e-02  0.0
  3.099999964000e-01  -8.866666742000e-02  0.0
  3.094999968800e-01  -1.120000004800e-01  0.0
  3.239999949600e-01  -5.133333430000e-02  0.0
  3.234999954400e-01  -7.466666736000e-02  0.0
  3.229999959200e-01  -9.800000042000e-02  0.0
  3.369999944800e-01  -6.066666730000e-02  0.0
  3.364999949600e-01  -8.400000036000e-02  0.0
  3.499999940000e-01  -7.000000030000e-02  0.0
 -1.071429029000e-01  -1.700000018000e-01  0.0
 -9.857146590000e-02  -1.700000018000e-01  0.0
 -9.000002890000e-02  -1.700000018000e-01  0.0
 -8.142859190000e-02  -1.700000018000e-01  0.0
 -7.285715490000e-02  -1.700000018000e-01  0.0
 -6.428571790000e-02  -1.700000018000e-01  0.0
 -1.037143230360e-01  -1.630000025200e-01  0.0
 -9.514288603600e-02  -1.630000025200e-01  0.0
 -8.657144903600e-02  -1.630000025200e-01  0.0
 -7.800001203600e-02  -1.630000025200e-01  0.0
 -6.942857503600e-02  -1.630000025200e-01  0.0
 -1.002857431720e-01  -1.560000032400e-01  0.0
 -9.171430617200e-02  -1.560000032400e-01  0.0
 -8.314286917200e-02  -1.560000032400e-01  0.0
 -7.457143217200e-02  -1.560000032400e-01  0.0
 -9.685716330800e-02  -1.490000039600e-01  0.0
 -8.828572630800e-02  -1.490000039600e-01  0.0
 -7.971428930800e-02  -1.490000039600e-01  0.0
 -9.342858344400e-02  -1.420000046800e-01  0.0
 -8.485714644400e-02  -1.420000046800e-01  0.0
 -9.000000358000e-02  -1.350000054000e-01  0.0
 -1.312499940000e-01  -2.000000030000e-01  0.0
 -1.264285757800e-01  -1.940000027600e-01  0.0
 -1.216071575600e-01  -1.880000025200e-01  0.0
 -1.167857393400e-01  -1.820000022800e-01  0.0
 -1.119643211200e-01  -1.760000020400e-01  0.0
 -1.071429029000e-01  -1.700000018000e-01  0.0
 -1.349999964000e-01  -1.940000027600e-01  0.0
 -1.301785781800e-01  -1.880000025200e-01  0.0
 -1.253571599600e-01  -1.820000022800e-01  0.0
 -1.205357417400e-01  -1.760000020400e-01  0.0
 -1.157143235200e-01  -1.700000018000e-01  0.0
 -1.387499988000e-01  -1.880000025200e-01  0.0
 -1.339285805800e-01  -1.820000022800e-01  0.0
 -1.291071623600e-01  -1.760000020400e-01  0.0
 -1.242857441400e-01  -1.700000018000e-01  0.0
 -1.425000012000e-01  -1.820000022800e-01  0.0
 -1.376785829800e-01  -1.760000020400e-01  0.0
 -1.328571647600e-01  -1.700000018000e-01  0.0
 -1.462500036000e-01  -1.760000020400e-01  0.0
 -1.414285853800e-01  -1.700000018000e-01  0.0
 -1.500000060000e-01  -1.700000018000e-01  0.0
[...]
POINT_DATA 7854
SCALARS field1 double 1
LOOKUP_TABLE default
 -1.659005762507e-06 
  1.236651681562e-02 
  1.435992992421e-02 
  1.468026651370e-02 
  1.619183609720e-02 
  1.902370187402e-02 
 -3.816091131737e-06 
  1.023405497001e-02 
  1.177336792381e-02 
  1.282536127167e-02 
  1.559293487815e-02 
  1.702932643985e-06 
  7.755612418071e-03 
  9.394201584592e-03 
  1.198565723802e-02 
  1.003602408696e-05 
  5.369143509885e-03 
  8.184197106199e-03 
 -2.709784289446e-06 
  4.180818509161e-03 
  3.089269998778e-06 
  3.655834081607e-02 
  3.541149572026e-02 
  3.329549071478e-02 
  2.872143726613e-02 
  1.895415201754e-02 
 -8.339671706387e-07 
  3.603737234672e-02 
  3.392937081260e-02 
  2.932035337116e-02 
  1.938208263426e-02 
 -2.796078471690e-07 
  3.452206929684e-02 
  2.987898816552e-02 
  1.978632655224e-02 
 -3.238015523747e-07 
  3.040066497327e-02 
  2.016446624389e-02 
 -3.138867521456e-07 
  2.051514774944e-02 
 -1.960993572790e-07 
 -4.406180955653e-07 
  1.902237923917e-02 
  2.196099469388e-02 
  2.502594242529e-02 
  2.760212319476e-02 
  2.965560179447e-02 
  3.132216140514e-02 
  2.225423336142e-02 
  2.482920303733e-02 
  2.737781457568e-02 
  2.950320296915e-02 
  3.119965273164e-02 
  2.529844879445e-02 
  2.754607741546e-02 
  2.962387028469e-02 
  3.132571899871e-02 
  2.815063660774e-02 
  3.009784617406e-02 
  3.174701447309e-02 
  3.081323116965e-02 
  3.248101582940e-02 
  3.328664534977e-02 
  3.132204535709e-02 
  2.965558673959e-02 
  2.760166649848e-02 
  2.502596496937e-02 
  2.196121196289e-02 
  1.902396466306e-02 
  2.998112356542e-02 
  2.798877170873e-02 
  2.552511162443e-02 
  2.242970674339e-02 
  1.879060667392e-02 
  2.863282813129e-02 
  2.633158140114e-02 
  2.344926981437e-02 
  1.981587608275e-02 
  2.733670433136e-02 
  2.473867941815e-02 
  2.144636324949e-02 
  2.614907299210e-02 
  2.326526762970e-02 
  2.505251531677e-02 
  3.654005576950e-02 
  3.658099970737e-02 
  3.635736496695e-02 
  3.579793921840e-02 
  3.481511298770e-02 
  3.328796106258e-02 
  3.573754231386e-02 
  3.543676544808e-02 
  3.482998780991e-02 
  3.385842952485e-02 
  3.248044997092e-02 
  3.481024018730e-02 
  3.416235760933e-02 
  3.315258933537e-02 
  3.174657737667e-02 
  3.376606511082e-02 
  3.275175771678e-02 
  3.132549126468e-02 
  3.259887578845e-02 
  3.119977582605e-02 
  3.132142598510e-02 
  3.721070047610e-02 
  3.139449272705e-02 
  3.216669215641e-02 
  3.179676567865e-02 
  3.485885903433e-02 
  6.072119875292e-04 
  3.303135211463e-02 
  3.327403296546e-02 
  3.238650533327e-02 
  3.227098410310e-02 
  3.118430424178e-02 
  3.296273273229e-02 
  3.320803393325e-02 
  3.215315762662e-02 
  3.268224280812e-02 
  3.280649388855e-02 
  3.271693635673e-02 
  3.181072861848e-02 
  3.331744533629e-02 
  3.154141339236e-02 
  3.414654529080e-02 
  2.505246439881e-02 
  2.684889949909e-02 
  2.842048672755e-02 
  2.981654524895e-02 
  3.106711176522e-02 
  3.217708735175e-02 
  2.614828389204e-02 
  2.785114760192e-02 
  2.935846909416e-02 
  3.069017905700e-02 
  3.185965848940e-02 
  2.733689252290e-02 
  2.895974013701e-02 
  3.037428132803e-02 
  3.160271270837e-02 
  2.863304976214e-02 
  3.013150300887e-02 
  3.141935417532e-02 
  2.998049795593e-02 
  3.131884579175e-02 
  3.132212495628e-02 
  3.348266145876e-02 
  3.270405339191e-02 
  3.306785659745e-02 
  3.318781305783e-02 
  3.315674385834e-02 
  3.465613165159e-02 
  3.294472981029e-02 
  3.289659907887e-02 
  3.311867080078e-02 
  3.311848698774e-02 
  3.327798808517e-02 
  3.295053743658e-02 
  3.306513865776e-02 
  3.312602670288e-02 
  3.310184325188e-02 
  3.316861060773e-02 
  3.313042530112e-02 
  3.309553026786e-02 
  3.314669054323e-02 
  3.322798095665e-02 
  3.272569883806e-02 
  3.194313308976e-02 
  3.300320754592e-02 
  3.398545204597e-02 
  3.490565422690e-02 
  3.576346528470e-02 
  3.656127148441e-02 
  3.270867845234e-02 
  3.370768410582e-02 
  3.465024089397e-02 
  3.553848947021e-02 
  3.637271351762e-02 
  3.338338934812e-02 
  3.433089566627e-02 
  3.523647028180e-02 
  3.610284670640e-02 
  3.404059508997e-02 
  3.494466906978e-02 
  3.582585784717e-02 
  3.468091459155e-02 
  3.555598411587e-02 
  3.530754889768e-02 
 -1.127597938736e-06 
  1.613452111461e-02 
  2.462534444858e-02 
  2.874552876691e-02 
  3.076866215374e-02 
  3.194331843081e-02 
  1.526625763123e-02 
  2.342877196386e-02 
  2.748944336949e-02 
  2.955320098696e-02 
  3.081583135245e-02 
  2.208131425261e-02 
  2.609108103670e-02 
  2.822034072981e-02 
  2.958018938889e-02 
  2.451568143349e-02 
  2.673852487384e-02 
  2.822565810285e-02 
  2.507323056973e-02 
  2.672692251796e-02 
  2.505128808960e-02 
  3.217818493149e-02 
  3.279842302780e-02 
  3.341718222440e-02 
  3.404089922475e-02 
  3.466848537424e-02 
  3.530702377457e-02 
  3.279721523889e-02 
  3.334517702632e-02 
  3.390751666681e-02 
  3.448706946969e-02 
  3.508445181909e-02 
  3.336245888653e-02 
  3.384520050557e-02 
  3.435473825247e-02 
  3.489506496431e-02 
  3.386592575378e-02 
  3.428543768152e-02 
  3.474615677014e-02 
  3.429382850688e-02 
  3.465205414588e-02 
  3.462386568883e-02 
  3.530682795756e-02 
  3.466861466729e-02 
  3.404088885912e-02 
  3.341720509647e-02 
  3.279846629858e-02 
  3.217836250220e-02 
  3.468120657221e-02 
  3.402340719005e-02 
  3.335896219023e-02 
  3.268666989690e-02 
  3.200212400576e-02 
  3.404036641040e-02 
  3.334655270448e-02 
  3.263503898176e-02 
  3.190330563514e-02 
  3.338351672237e-02 
  3.264668585216e-02 
  3.188055316885e-02 
  3.270872155995e-02 
  3.192110068300e-02 
  3.194378728963e-02 
  3.733471947378e-02 
  3.657744774153e-02 
  3.596036552222e-02 
  3.544741404944e-02 
  3.501170848498e-02 
  3.462399478799e-02 
  3.714561876684e-02 
  3.639664092310e-02 
  3.574775459648e-02 
  3.517290244168e-02 
  3.465197908104e-02 
  3.680970963456e-02 
  3.606220859033e-02 
  3.538044867107e-02 
  3.474616439784e-02 
  3.637023385894e-02 
  3.561450344858e-02 
  3.489507461450e-02 
  3.585981720569e-02 
  3.508437340487e-02 
  3.530750215127e-02 
  3.217789620307e-02 
  3.279728093190e-02 
  3.336241850217e-02 
  3.386594439026e-02 
  3.429400112088e-02 
  3.462351327654e-02 
  3.185958405557e-02 
  3.253934658871e-02 
  3.315707377406e-02 
  3.370321027303e-02 
  3.416426466941e-02 
  3.160275881456e-02 
  3.234991313181e-02 
  3.302740966964e-02 
  3.362363916680e-02 
  3.141893966181e-02 
  3.224082692329e-02 
  3.298507756431e-02 
  3.131883643396e-02 
  3.222436802481e-02 
  3.132167069499e-02 
  3.733433531555e-02 
  3.714560900122e-02 
  3.680965931283e-02 
  3.637026606215e-02 
  3.585966214410e-02 
  3.530836416745e-02 
  3.795491523382e-02 
  3.763167562775e-02 
  3.720339010698e-02 
  3.670766070561e-02 
  3.616816017063e-02 
  3.855256541775e-02 
  3.810006606464e-02 
  3.758669469329e-02 
  3.704166220038e-02 
  3.910355684918e-02 
  3.853523571344e-02 
  3.794912846245e-02 
  3.959463947197e-02 
  3.892642078859e-02 
  4.001020047754e-02 
  3.194372371452e-02 
  3.192140471860e-02 
  3.188079485043e-02 
  3.190338050424e-02 
  3.200196218333e-02 
  3.217804048467e-02 
  3.081608281463e-02 
  3.080290336154e-02 
  3.080068347710e-02 
  3.088544422078e-02 
  3.106708306508e-02 
  2.958032109667e-02 
  2.959753215810e-02 
  2.965103134237e-02 
  2.981671046840e-02 
  2.822591738385e-02 
  2.828628188858e-02 
  2.841997983369e-02 
  2.672698501684e-02 
  2.684878463386e-02 
  2.505196577489e-02 
 -2.246482110709e-07 
 -3.161903041830e-07 
 -2.432044532796e-07 
 -3.697862792145e-07 
 -3.001563207405e-07 
 -1.097765849547e-06 
  2.240335793136e-02 
  2.235097315033e-02 
  2.219197497759e-02 
  2.194677627209e-02 
  2.164428083593e-02 
  3.322842313946e-02 
  3.312709734293e-02 
  3.286413018642e-02 
  3.247913686310e-02 
  3.777327357040e-02 
  3.761191270779e-02 
  3.727849910534e-02 
  3.945563173208e-02 
  3.922642079788e-02 
  4.003843764940e-02 
  3.653851459207e-02 
  3.573656004006e-02 
  3.480997266542e-02 
  3.376636495904e-02 
  3.259893534639e-02 
  3.132158215482e-02 
  3.571933450326e-02 
  3.502058932162e-02 
  3.420761137793e-02 
  3.327379513716e-02 
  3.222432706915e-02 
  3.513507073605e-02 
  3.453687061094e-02 
  3.381667138115e-02 
  3.298514930753e-02 
  3.476611711410e-02 
  3.425547825561e-02 
  3.362374153022e-02 
  3.460544371485e-02 
  3.416429078727e-02 
  3.462314179827e-02 
  4.279831268986e-02 
  4.180753853913e-02 
  4.025501567830e-02 
  3.877833632726e-02 
  3.753671880008e-02 
  3.654037236613e-02 
  4.317242309309e-02 
  4.148667583018e-02 
  3.983185022135e-02 
  3.840983450894e-02 
  3.719879743518e-02 
  4.253262414540e-02 
  4.071339036426e-02 
  3.910573365557e-02 
  3.770984468929e-02 
  4.144329300124e-02 
  3.966530007229e-02 
  3.808853954840e-02 
  4.011187344024e-02 
  3.837679444532e-02 
  3.861738689561e-02 
  4.279695776145e-02 
  4.127501758134e-02 
  3.956317876487e-02 
  3.766211884444e-02 
  3.556998196755e-02 
  3.328679946782e-02 
  4.180794384591e-02 
  4.033067881830e-02 
  3.866826463734e-02 
  3.683234915083e-02 
  3.481487696898e-02 
  4.025503604422e-02 
  3.892560400301e-02 
  3.743613377648e-02 
  3.579735985897e-02 
  3.877840349719e-02 
  3.763983180049e-02 
  3.635827529713e-02 
  3.753597391344e-02 
  3.658071428740e-02 
  3.654240816315e-02 
  4.279724430916e-02 
  4.317215834286e-02 
  4.253190484948e-02 
  4.144363344109e-02 
  4.011159365455e-02 
  3.861919731959e-02 
  4.412905270346e-02 
  4.427026899646e-02 
  4.333613291866e-02 
  4.198813747060e-02 
  4.044607897006e-02 
  4.526981711780e-02 
  4.518811172095e-02 
  4.399441624189e-02 
  4.241324172824e-02 
  4.622027302301e-02 
  4.593306561158e-02 
  4.450456051234e-02 
  4.698184335177e-02 
  4.649460999779e-02 
  4.755119834001e-02 
  3.861573866014e-02 
  3.837586956271e-02 
  3.808790082186e-02 
  3.771005727565e-02 
  3.719902499435e-02 
  3.653775778830e-02 
  3.706982057816e-02 
  3.698170496906e-02 
  3.685663863454e-02 
  3.665254211335e-02 
  3.632047849382e-02 
  3.561413466102e-02 
  3.570634812586e-02 
  3.577067211432e-02 
  3.575911067976e-02 
  3.422297913919e-02 
  3.454164614902e-02 
  3.483717689768e-02 
  3.289808436173e-02 
  3.350297840601e-02 
  3.164936704172e-02 
  3.058688177414e-02 
  3.246637643420e-02 
  3.419253671981e-02 
  3.578107163219e-02 
  3.724603422531e-02 
  3.861499076069e-02 
  3.046059400776e-02 
  3.241238926899e-02 
  3.413991407549e-02 
  3.568367306846e-02 
  3.706982504709e-02 
  3.052068634336e-02 
  3.247500603892e-02 
  3.415364368693e-02 
  3.561391037159e-02 
  3.075446373809e-02 
  3.264263554112e-02 
  3.422326358735e-02 
  3.114057718453e-02 
  3.289801988840e-02 
  3.165019213888e-02 
  3.861743187831e-02 
  3.876488169100e-02 
  3.887323504856e-02 
  3.893125932704e-02 
  3.895783935313e-02 
  3.896990679654e-02 
  4.044652409744e-02 
  4.070095630492e-02 
  4.084795714915e-02 
  4.091046098794e-02 
  4.089032843344e-02 
  4.241304909075e-02 
  4.272751379762e-02 
  4.290976419720e-02 
  4.296607836432e-02 
  4.450506124350e-02 
  4.487467693678e-02 
  4.507429037152e-02 
  4.649432948102e-02 
  4.689522410574e-02 
  4.755232902577e-02 
  3.653626533739e-02 
  3.589158757001e-02 
  3.532387306576e-02 
  3.485098877222e-02 
  3.449520506703e-02 
  3.433045165752e-02 
  3.632080462685e-02 
  3.552895860720e-02 
  3.481383951267e-02 
  3.418482370557e-02 
  3.368479946223e-02 
  3.575880539759e-02 
  3.480464050500e-02 
  3.389960398881e-02 
  3.305836204653e-02 
  3.483717484480e-02 
  3.366433361714e-02 
  3.248518093571e-02 
  3.350287512651e-02 
  3.200643676743e-02 
  3.165036053436e-02 
  3.471210448194e-02 
  3.337123765367e-02 
  3.297930901097e-02 
  3.302427097720e-02 
  3.355390869055e-02 
  3.459340677323e-02 
  3.301093393594e-02 
  3.318591818954e-02 
  3.320565642157e-02 
  3.347484404117e-02 
  3.388999530224e-02 
  3.299136403838e-02 
  3.277996067625e-02 
  3.265784617890e-02 
  3.218137703228e-02 
  3.285984280248e-02 
  3.311286359261e-02 
  3.266442303551e-02 
  2.849033679932e-02 
  3.218402108342e-02 
  2.909882129845e-04 
  3.003374660869e-02 
  3.144864091198e-02 
  3.249125369470e-02 
  3.328298419915e-02 
  3.388028626668e-02 
  3.433381494763e-02 
  3.152186816087e-02 
  3.260014233979e-02 
  3.338903564739e-02 
  3.398042593215e-02 
  3.441171580299e-02 
  3.311375913697e-02 
  3.383278432285e-02 
  3.434688539382e-02 
  3.472229422009e-02 
  3.475790929865e-02 
  3.510675732348e-02 
  3.533555483791e-02 
  3.639769031209e-02 
  3.638016873260e-02 
  3.797914016055e-02 
  3.433013670919e-02 
  3.449524697427e-02 
  3.485090356591e-02 
  3.532402621211e-02 
  3.589153475974e-02 
  3.653672476098e-02 
  3.482149647491e-02 
  3.483733112099e-02 
  3.502359707011e-02 
  3.532739191460e-02 
  3.571933796263e-02 
  3.506793607580e-02 
  3.495343758030e-02 
  3.499166954431e-02 
  3.513453877522e-02 
  3.509851952502e-02 
  3.487015279476e-02 
  3.476637180776e-02 
  3.494577223850e-02 
  3.460527113663e-02 
  3.462378958734e-02 
  1.289392922664e-02 
  1.571771041737e-02 
  1.814432876030e-02 
  2.023195899289e-02 
  2.204423071269e-02 
  2.364414310023e-02 
  1.404982714632e-02 
  1.675661299171e-02 
  1.906403570715e-02 
  2.103741945220e-02 
  2.273425379017e-02 
  1.551357229839e-02 
  1.810768473687e-02 
  2.024911765033e-02 
  2.206063833377e-02 
  1.732150819796e-02 
  1.974175238089e-02 
  2.167359666239e-02 
  1.946575298378e-02 
  2.163001094795e-02 
  2.188141414001e-02 
  2.364206979262e-02 
  2.582408426922e-02 
  2.764509151075e-02 
  2.917966061453e-02 
  3.049882758785e-02 
  3.165235719198e-02 
  2.449453269028e-02 
  2.650844748165e-02 
  2.817529497072e-02 
  2.958465538685e-02 
  3.079376744018e-02 
  2.561953105762e-02 
  2.738431875858e-02 
  2.885266588264e-02 
  3.010294693021e-02 
  2.696196207594e-02 
  2.842456007246e-02 
  2.965495737875e-02 
  2.845399336691e-02 
  2.958657105142e-02 
  3.003505975854e-02 
  3.003221822600e-02 
  2.910322904940e-02 
  2.792934204425e-02 
  2.645675846389e-02 
  2.451855607385e-02 
  2.188196441504e-02 
  2.845325241001e-02 
  2.724222738934e-02 
  2.577261348459e-02 
  2.394876729476e-02 
  2.163004009940e-02 
  2.696187192615e-02 
  2.551476400633e-02 
  2.377937293180e-02 
  2.167346505704e-02 
  2.561921333974e-02 
  2.399119356226e-02 
  2.206043293581e-02 
  2.449389690106e-02 
  2.273439900230e-02 
  2.364388777736e-02 
  2.364157973594e-02 
  2.456580761009e-02 
  2.590215986242e-02 
  2.743005104396e-02 
  2.901877492897e-02 
  3.058740812265e-02 
  2.582431562370e-02 
  2.661833526317e-02 
  2.774934739703e-02 
  2.906659411267e-02 
  3.046047756818e-02 
  2.764523112725e-02 
  2.835105542434e-02 
  2.935007981013e-02 
  3.052044506225e-02 
  2.917944207428e-02 
  2.984162673132e-02 
  3.075445922479e-02 
  3.049901142171e-02 
  3.114081398699e-02 
  3.165100591903e-02 
  3.733445540580e-02 
  3.763567295948e-02 
  3.787549362734e-02 
  3.804192700899e-02 
  3.810382899554e-02 
  3.797983884218e-02 
  3.677531069420e-02 
  3.689359040255e-02 
  3.689549063078e-02 
  3.674301298735e-02 
  3.638005535310e-02 
  3.616715140733e-02 
  3.608406637351e-02 
  3.582649623084e-02 
  3.533574577837e-02 
  3.553716194258e-02 
  3.524433170022e-02 
  3.472213858766e-02 
  3.491324932964e-02 
  3.441180286980e-02 
  3.433327860522e-02 
  3.003621017888e-02 
  2.958628939745e-02 
  2.965523274998e-02 
  3.010282033098e-02 
  3.079390548649e-02 
  3.165180761415e-02 
  3.144832233391e-02 
  3.103568455656e-02 
  3.106898182292e-02 
  3.142207059830e-02 
  3.200705507292e-02 
  3.249159190722e-02 
  3.215483972386e-02 
  3.218065905895e-02 
  3.248583894868e-02 
  3.328286307296e-02 
  3.301885762993e-02 
  3.305904318056e-02 
  3.388050294518e-02 
  3.368515425512e-02 
  3.433213788331e-02 
  3.733511109786e-02 
  3.677505142172e-02 
  3.616692325234e-02 
  3.553670640070e-02 
  3.491292262737e-02 
  3.433126780193e-02 
  3.657741123474e-02 
  3.614110249350e-02 
  3.568894442073e-02 
  3.524096341215e-02 
  3.482135946913e-02 
  3.596049123830e-02 
  3.564880415333e-02 
  3.534621032419e-02 
  3.506811138742e-02 
  3.544732296471e-02 
  3.525973733874e-02 
  3.509853144279e-02 
  3.501183430264e-02 
  3.494614212839e-02 
  3.462358244414e-02 
  2.364282760725e-02 
  2.204462466866e-02 
  2.023180921045e-02 
  1.814402181758e-02 
  1.571776921597e-02 
  1.289467606799e-02 
  2.256819336686e-02 
  2.082950216650e-02 
  1.884117142167e-02 
  1.656022782861e-02 
  1.395010137326e-02 
  2.175810465504e-02 
  1.992019090498e-02 
  1.783071225730e-02 
  1.545179886274e-02 
  2.124232234414e-02 
  1.937086695087e-02 
  1.726295583714e-02 
  2.104228149574e-02 
  1.920562610058e-02 
  2.114977030620e-02 
  4.001087744102e-02 
  3.892636713221e-02 
  3.794934460877e-02 
  3.704153313456e-02 
  3.616828276741e-02 
  3.530794159676e-02 
  3.919170292390e-02 
  3.822427981769e-02 
  3.731221235893e-02 
  3.642966964875e-02 
  3.555631144080e-02 
  3.843183958855e-02 
  3.754494339921e-02 
  3.668157931726e-02 
  3.582585754286e-02 
  3.775158825637e-02 
  3.692979696418e-02 
  3.610317704698e-02 
  3.716905313088e-02 
  3.637283457212e-02 
  3.656366030345e-02 
  3.713645982683e-02 
  3.295335995314e-02 
  3.292289226888e-02 
  3.279288555975e-02 
  3.325113583105e-02 
  3.429194378489e-02 
  3.337347491409e-02 
  3.276492812456e-02 
  3.287743848622e-02 
  3.287809604510e-02 
  3.352348339109e-02 
  3.274295698579e-02 
  3.299266926788e-02 
  3.290361076527e-02 
  3.332156295181e-02 
  3.270565558078e-02 
  3.271142352568e-02 
  3.392556395104e-02 
  3.326471589279e-02 
  3.424228452271e-02 
  3.412777781708e-02 
  4.193933492308e-02 
  4.125765402669e-02 
  4.068554704590e-02 
  4.022021221143e-02 
  3.985377729494e-02 
  3.946303103941e-02 
  4.227394924741e-02 
  4.153672094845e-02 
  4.092476943323e-02 
  4.043758678109e-02 
  4.005175193806e-02 
  4.252871623893e-02 
  4.174398501979e-02 
  4.110527091972e-02 
  4.060138243661e-02 
  4.269364571441e-02 
  4.187770628913e-02 
  4.122443857778e-02 
  4.276898598460e-02 
  4.193822401121e-02 
  4.275364878925e-02 
  4.193881477425e-02 
  4.170967493699e-02 
  4.139852796248e-02 
  4.100644089573e-02 
  4.053894241047e-02 
  4.000991249439e-02 
  4.061609207354e-02 
  4.034318071751e-02 
  4.001149958710e-02 
  3.962618164004e-02 
  3.919175264112e-02 
  3.947920927873e-02 
  3.916766767895e-02 
  3.881729820114e-02 
  3.843164563575e-02 
  3.847400741129e-02 
  3.812868471709e-02 
  3.775165168107e-02 
  3.754454052556e-02 
  3.716879836273e-02 
  3.656453982400e-02 
  3.733393154871e-02 
  3.821272958561e-02 
  3.931879642863e-02 
  4.075379647313e-02 
  4.263627857925e-02 
  4.510515814950e-02 
  3.763550459931e-02 
  3.860507481725e-02 
  3.988452758375e-02 
  4.160710497769e-02 
  4.391241542536e-02 
  3.787517971258e-02 
  3.897246960654e-02 
  4.048586443784e-02 
  4.257524971576e-02 
  3.804175524039e-02 
  3.930648036672e-02 
  4.111518514088e-02 
  3.810388951681e-02 
  3.956860568857e-02 
  3.797871711146e-02 
  4.510528913243e-02 
  4.263635176739e-02 
  4.075387163220e-02 
  3.931886277061e-02 
  3.821279752847e-02 
  3.733387792473e-02 
  4.380699297030e-02 
  4.180771719575e-02 
  4.023024849911e-02 
  3.897585128778e-02 
  3.795455602336e-02 
  4.267455705290e-02 
  4.102612566020e-02 
  3.967528140906e-02 
  3.855214779297e-02 
  4.168260493334e-02 
  4.029006184226e-02 
  3.910300843503e-02 
  4.080243121520e-02 
  3.959397785484e-02 
  4.000896412542e-02 
  4.981659625572e-02 
  4.924578039022e-02 
  4.847637766706e-02 
  4.751584953639e-02 
  4.638019334411e-02 
  4.510737458360e-02 
  4.697373394725e-02 
  4.637175390556e-02 
  4.562862140670e-02 
  4.476466517131e-02 
  4.380679631033e-02 
  4.466934289207e-02 
  4.408592828344e-02 
  4.341565824981e-02 
  4.267487462826e-02 
  4.280992095530e-02 
  4.227298037055e-02 
  4.168235427089e-02 
  4.129067148928e-02 
  4.080241844120e-02 
  4.000777261220e-02 
  4.555739240820e-02 
  4.466036736780e-02 
  4.290574855651e-02 