# vtk DataFile Version 2
NuDG++ 2D simulation
ASCII
DATASET UNSTRUCTURED_GRID

POINTS 7854 double
 -1.656250060000e-01  -2.000000030000e-01  0.0
 -1.725000054000e-01  -1.908888817000e-01  0.0
 -1.793750048000e-01  -1.817777604000e-01  0.0
 -1.862500042000e-01  -1.726666391000e-01  0.0
 -1.931250036000e-01  -1.635555178000e-01  0.0
 -2.000000030000e-01  -1.544443965000e-01  0.0
 -1.725000054000e-01  -2.000000030000e-01  0.0
 -1.793750048000e-01  -1.908888817000e-01  0.0
 -1.862500042000e-01  -1.817777604000e-01  0.0
 -1.931250036000e-01  -1.726666391000e-01  0.0
 -2.000000030000e-01  -1.635555178000e-01  0.0
 -1.793750048000e-01  -2.000000030000e-01  0.0
 -1.862500042000e-01  -1.908888817000e-01  0.0
 -1.931250036000e-01  -1.817777604000e-01  0.0
 -2.000000030000e-01  -1.726666391000e-01  0.0
 -1.862500042000e-01  -2.000000030000e-01  0.0
 -1.931250036000e-01  -1.908888817000e-01  0.0
 -2.000000030000e-01  -1.817777604000e-01  0.0
 -1.931250036000e-01  -2.000000030000e-01  0.0
 -2.000000030000e-01  -1.908888817000e-01  0.0
 -2.000000030000e-01  -2.000000030000e-01  0.0
 -6.428571790000e-02  -1.700000018000e-01  0.0
 -7.080357372400e-02  -1.760000020400e-01  0.0
 -7.732142954800e-02  -1.820000022800e-01  0.0
 -8.383928537200e-02  -1.880000025200e-01  0.0
 -9.035714119600e-02  -1.940000027600e-01  0.0
 -9.687499702000e-02  -2.000000030000e-01  0.0
 -6.392857432000e-02  -1.760000020400e-01  0.0
 -7.044643014400e-02  -1.820000022800e-01  0.0
 -7.696428596800e-02  -1.880000025200e-01  0.0
 -8.348214179200e-02  -1.940000027600e-01  0.0
 -8.999999761600e-02  -2.000000030000e-01  0.0
 -6.357143074000e-02  -1.820000022800e-01  0.0
 -7.008928656400e-02  -1.880000025200e-01  0.0
 -7.660714238800e-02  -1.940000027600e-01  0.0
 -8.312499821200e-02  -2.000000030000e-01  0.0
 -6.321428716000e-02  -1.880000025200e-01  0.0
 -6.973214298400e-02  -1.940000027600e-01  0.0
 -7.624999880800e-02  -2.000000030000e-01  0.0
 -6.285714358000e-02  -1.940000027600e-01  0.0
 -6.937499940400e-02  -2.000000030000e-01  0.0
 -6.250000000000e-02  -2.000000030000e-01  0.0
 -2.000000030000e-01  -1.544443965000e-01  0.0
 -1.900000036000e-01  -1.478412374800e-01  0.0
 -1.800000042000e-01  -1.412380784600e-01  0.0
 -1.700000048000e-01  -1.346349194400e-01  0.0
 -1.600000054000e-01  -1.280317604200e-01  0.0
 -1.500000060000e-01  -1.214286014000e-01  0.0
 -2.000000030000e-01  -1.453332975600e-01  0.0
 -1.900000036000e-01  -1.387301385400e-01  0.0
 -1.800000042000e-01  -1.321269795200e-01  0.0
 -1.700000048000e-01  -1.255238205000e-01  0.0
 -1.600000054000e-01  -1.189206614800e-01  0.0
 -2.000000030000e-01  -1.362221986200e-01  0.0
 -1.900000036000e-01  -1.296190396000e-01  0.0
 -1.800000042000e-01  -1.230158805800e-01  0.0
 -1.700000048000e-01  -1.164127215600e-01  0.0
 -2.000000030000e-01  -1.271110996800e-01  0.0
 -1.900000036000e-01  -1.205079406600e-01  0.0
 -1.800000042000e-01  -1.139047816400e-01  0.0
 -2.000000030000e-01  -1.180000007400e-01  0.0
 -1.900000036000e-01  -1.113968417200e-01  0.0
 -2.000000030000e-01  -1.088889018000e-01  0.0
 -1.500000060000e-01  -1.214286014000e-01  0.0
 -1.600000054000e-01  -1.280317604200e-01  0.0
 -1.700000048000e-01  -1.346349194400e-01  0.0
 -1.800000042000e-01  -1.412380784600e-01  0.0
 -1.900000036000e-01  -1.478412374800e-01  0.0
 -2.000000030000e-01  -1.544443965000e-01  0.0
 -1.500000060000e-01  -1.311428814800e-01  0.0
 -1.600000054000e-01  -1.377460405000e-01  0.0
 -1.700000048000e-01  -1.443491995200e-01  0.0
 -1.800000042000e-01  -1.509523585400e-01  0.0
 -1.900000036000e-01  -1.575555175600e-01  0.0
 -1.500000060000e-01  -1.408571615600e-01  0.0
 -1.600000054000e-01  -1.474603205800e-01  0.0
 -1.700000048000e-01  -1.540634796000e-01  0.0
 -1.800000042000e-01  -1.606666386200e-01  0.0
 -1.500000060000e-01  -1.505714416400e-01  0.0
 -1.600000054000e-01  -1.571746006600e-01  0.0
 -1.700000048000e-01  -1.637777596800e-01  0.0
 -1.500000060000e-01  -1.602857217200e-01  0.0
 -1.600000054000e-01  -1.668888807400e-01  0.0
 -1.500000060000e-01  -1.700000018000e-01  0.0
 -1.500000060000e-01  -7.285714149000e-02  0.0
 -1.600000054000e-01  -8.006349355200e-02  0.0
 -1.700000048000e-01  -8.726984561400e-02  0.0
 -1.800000042000e-01  -9.447619767600e-02  0.0
 -1.900000036000e-01  -1.016825497380e-01  0.0
 -2.000000030000e-01  -1.088889018000e-01  0.0
 -1.500000060000e-01  -8.257143347200e-02  0.0
 -1.600000054000e-01  -8.977778553400e-02  0.0
 -1.700000048000e-01  -9.698413759600e-02  0.0
 -1.800000042000e-01  -1.041904896580e-01  0.0
 -1.900000036000e-01  -1.113968417200e-01  0.0
 -1.500000060000e-01  -9.228572545400e-02  0.0
 -1.600000054000e-01  -9.949207751600e-02  0.0
 -1.700000048000e-01  -1.066984295780e-01  0.0
 -1.800000042000e-01  -1.139047816400e-01  0.0
 -1.500000060000e-01  -1.020000174360e-01  0.0
 -1.600000054000e-01  -1.092063694980e-01  0.0
 -1.700000048000e-01  -1.164127215600e-01  0.0
 -1.500000060000e-01  -1.117143094180e-01  0.0
 -1.600000054000e-01  -1.189206614800e-01  0.0
 -1.500000060000e-01  -1.214286014000e-01  0.0
  1.832975030000e+00  -4.625000060000e-02  0.0
  1.841380024000e+00  -7.700000108000e-02  0.0
  1.849785018000e+00  -1.077500015600e-01  0.0
  1.858190012000e+00  -1.385000020400e-01  0.0
  1.866595006000e+00  -1.692500025200e-01  0.0
  1.875000000000e+00  -2.000000030000e-01  0.0
  1.866380024000e+00  -5.649999976400e-02  0.0
  1.874785018000e+00  -8.725000024400e-02  0.0
  1.883190012000e+00  -1.180000007240e-01  0.0
  1.891595006000e+00  -1.487500012040e-01  0.0
  1.900000000000e+00  -1.795000016840e-01  0.0
  1.899785018000e+00  -6.674999892800e-02  0.0
  1.908190012000e+00  -9.749999940800e-02  0.0
  1.916595006000e+00  -1.282499998880e-01  0.0
  1.925000000000e+00  -1.590000003680e-01  0.0
  1.933190012000e+00  -7.699999809200e-02  0.0
  1.941595006000e+00  -1.077499985720e-01  0.0
  1.950000000000e+00  -1.384999990520e-01  0.0
  1.966595006000e+00  -8.724999725600e-02  0.0
  1.975000000000e+00  -1.179999977360e-01  0.0
  2.000000000000e+00  -9.749999642000e-02  0.0
 -1.500000060000e-01  -1.700000018000e-01  0.0
 -1.444000050800e-01  -1.630000025200e-01  0.0
 -1.388000041600e-01  -1.560000032400e-01  0.0
 -1.332000032400e-01  -1.490000039600e-01  0.0
 -1.276000023200e-01  -1.420000046800e-01  0.0
 -1.220000014000e-01  -1.350000054000e-01  0.0
 -1.500000060000e-01  -1.602857217200e-01  0.0
 -1.444000050800e-01  -1.532857224400e-01  0.0
 -1.388000041600e-01  -1.462857231600e-01  0.0
 -1.332000032400e-01  -1.392857238800e-01  0.0
 -1.276000023200e-01  -1.322857246000e-01  0.0
 -1.500000060000e-01  -1.505714416400e-01  0.0
 -1.444000050800e-01  -1.435714423600e-01  0.0
 -1.388000041600e-01  -1.365714430800e-01  0.0
 -1.332000032400e-01  -1.295714438000e-01  0.0
 -1.500000060000e-01  -1.408571615600e-01  0.0
 -1.444000050800e-01  -1.338571622800e-01  0.0
 -1.388000041600e-01  -1.268571630000e-01  0.0
 -1.500000060000e-01  -1.311428814800e-01  0.0
 -1.444000050800e-01  -1.241428822000e-01  0.0
 -1.500000060000e-01  -1.214286014000e-01  0.0
  2.849999964000e-01  -2.333333530000e-02  0.0
  2.844999968800e-01  -4.666666836000e-02  0.0
  2.839999973600e-01  -7.000000142000e-02  0.0
  2.834999978400e-01  -9.333333448000e-02  0.0
  2.829999983200e-01  -1.166666675400e-01  0.0
  2.824999988000e-01  -1.400000006000e-01  0.0
  2.979999959200e-01  -3.266666830000e-02  0.0
  2.974999964000e-01  -5.600000136000e-02  0.0
  2.969999968800e-01  -7.933333442000e-02  0.0
  2.964999973600e-01  -1.026666674800e-01  0.0
  2.959999978400e-01  -1.260000005400e-01  0.0
  3.109999954400e-01  -4.200000130000e-02  0.0
  3.104999959200e-01  -6.533333436000e-02  0.0
  3.099999964000e-01  -8.866666742000e-02  0.0
  3.094999968800e-01  -1.120000004800e-01  0.0
  3.239999949600e-01  -5.133333430000e-02  0.0
  3.234999954400e-01  -7.466666736000e-02  0.0
  3.229999959200e-01  -9.800000042000e-02  0.0
  3.369999944800e-01  -6.066666730000e-02  0.0
  3.364999949600e-01  -8.400000036000e-02  0.0
  3.499999940000e-01  -7.000000030000e-02  0.0
 -1.071429029000e-01  -1.700000018000e-01  0.0
 -9.857146590000e-02  -1.700000018000e-01  0.0
 -9.000002890000e-02  -1.700000018000e-01  0.0
 -8.142859190000e-02  -1.700000018000e-01  0.0
 -7.285715490000e-02  -1.700000018000e-01  0.0
 -6.428571790000e-02  -1.700000018000e-01  0.0
 -1.037143230360e-01  -1.630000025200e-01  0.0
 -9.514288603600e-02  -1.630000025200e-01  0.0
 -8.657144903600e-02  -1.630000025200e-01  0.0
 -7.800001203600e-02  -1.630000025200e-01  0.0
 -6.942857503600e-02  -1.630000025200e-01  0.0
 -1.002857431720e-01  -1.560000032400e-01  0.0
 -9.171430617200e-02  -1.560000032400e-01  0.0
 -8.314286917200e-02  -1.560000032400e-01  0.0
 -7.457143217200e-02  -1.560000032400e-01  0.0
 -9.685716330800e-02  -1.490000039600e-01  0.0
 -8.828572630800e-02  -1.490000039600e-01  0.0
 -7.971428930800e-02  -1.490000039600e-01  0.0
 -9.342858344400e-02  -1.420000046800e-01  0.0
 -8.485714644400e-02  -1.420000046800e-01  0.0
 -9.000000358000e-02  -1.350000054000e-01  0.0
 -1.312499940000e-01  -2.000000030000e-01  0.0
 -1.264285757800e-01  -1.940000027600e-01  0.0
 -1.216071575600e-01  -1.880000025200e-01  0.0
 -1.167857393400e-01  -1.820000022800e-01  0.0
 -1.119643211200e-01  -1.760000020400e-01  0.0
 -1.071429029000e-01  -1.700000018000e-01  0.0
 -1.349999964000e-01  -1.940000027600e-01  0.0
 -1.301785781800e-01  -1.880000025200e-01  0.0
 -1.253571599600e-01  -1.820000022800e-01  0.0
 -1.205357417400e-01  -1.760000020400e-01  0.0
 -1.157143235200e-01  -1.700000018000e-01  0.0
 -1.387499988000e-01  -1.880000025200e-01  0.0
 -1.339285805800e-01  -1.820000022800e-01  0.0
 -1.291071623600e-01  -1.760000020400e-01  0.0
 -1.242857441400e-01  -1.700000018000e-01  0.0
 -1.425000012000e-01  -1.820000022800e-01  0.0
 -1.376785829800e-01  -1.760000020400e-01  0.0
 -1.328571647600e-01  -1.700000018000e-01  0.0
 -1.462500036000e-01  -1.760000020400e-01  0.0
 -1.414285853800e-01  -1.700000018000e-01  0.0
 -1.500000060000e-01  -1.700000018000e-01  0.0
[...]
POINT_DATA 7854
SCALARS field1 double 1
LOOKUP_TABLE default
 -5.932168490853e-06 
  1.799362733998e-02 
  2.284366061722e-02 
  2.470163866151e-02 
  2.792235749674e-02 
  3.308716863364e-02 
 -2.479157756595e-06 
  1.482784842234e-02 
  1.896296287337e-02 
  2.198796636439e-02 
  2.712925891944e-02 
  2.176574950061e-06 
  1.148161148262e-02 
  1.571748810581e-02 
  2.084686878099e-02 
  4.559281412561e-06 
  8.589929795562e-03 
  1.423148814909e-02 
 -3.185882026029e-06 
  7.278287145791e-03 
  1.650494357600e-06 
  6.410768423846e-02 
  6.074714740847e-02 
  5.500067526793e-02 
  4.490597761311e-02 
  2.770304500412e-02 
 -3.447717284460e-07 
  6.187942768992e-02 
  5.610674294960e-02 
  4.588811000230e-02 
  2.836025228157e-02 
 -1.507629359504e-07 
  5.714083195399e-02 
  4.680800771673e-02 
  2.898001178603e-02 
 -1.703143597700e-07 
  4.766725705730e-02 
  2.956078910986e-02 
 -1.680297023505e-07 
  3.010074693592e-02 
 -6.917013956970e-08 
 -2.595032569324e-07 
  3.309081725743e-02 
  3.798382143224e-02 
  4.322920704598e-02 
  4.788808591961e-02 
  5.169873206564e-02 
  5.477585258859e-02 
  3.871647630259e-02 
  4.305723199608e-02 
  4.745875085106e-02 
  5.132541213392e-02 
  5.445146055778e-02 
  4.400989805159e-02 
  4.784567451727e-02 
  5.150800260378e-02 
  5.461736077095e-02 
  4.897284237591e-02 
  5.235296419063e-02 
  5.532680155904e-02 
  5.360432539057e-02 
  5.655361001622e-02 
  5.790759620633e-02 
  5.477419849086e-02 
  5.169904376549e-02 
  4.788673711186e-02 
  4.323009974234e-02 
  3.798276099513e-02 
  3.309308683033e-02 
  5.238881185120e-02 
  4.868056345088e-02 
  4.410169573922e-02 
  3.855549495758e-02 
  3.235503454940e-02 
  4.995481623001e-02 
  4.565335649053e-02 
  4.031617719208e-02 
  3.380433664555e-02 
  4.759579220227e-02 
  4.272547051158e-02 
  3.658333998430e-02 
  4.535600001510e-02 
  3.981500444427e-02 
  4.289548500316e-02 
  6.417346937775e-02 
  6.426144160621e-02 
  6.375643639886e-02 
  6.259791134974e-02 
  6.068437248914e-02 
  5.790869387668e-02 
  6.277997667002e-02 
  6.217254964544e-02 
  6.097038276881e-02 
  5.911054156062e-02 
  5.655339525194e-02 
  6.108887054062e-02 
  5.982533841646e-02 
  5.792034764963e-02 
  5.532632635933e-02 
  5.915965305179e-02 
  5.724458689241e-02 
  5.461731346035e-02 
  5.703716280120e-02 
  5.445233996605e-02 
  5.477309691378e-02 
  6.757978489301e-02 
  5.004272799084e-02 
  5.430710872795e-02 
  5.771949696933e-02 
  6.086298231201e-02 
  3.440932838121e-04 
  5.797254929032e-02 
  5.739096275333e-02 
  5.679736190890e-02 
  5.790743425156e-02 
  5.220507091172e-02 
  5.799987021589e-02 
  5.841818825359e-02 
  5.677802864724e-02 
  5.822659032712e-02 
  5.829798158477e-02 
  5.727163214501e-02 
  5.552620686713e-02 
  5.830941852464e-02 
  5.571626337208e-02 
  6.189883757205e-02 
  4.289593770414e-02 
  4.661591977553e-02 
  4.965629560243e-02 
  5.227007608374e-02 
  5.457494404139e-02 
  5.659505482147e-02 
  4.535460389777e-02 
  4.858064040885e-02 
  5.138151390898e-02 
  5.383054833647e-02 
  5.597131584026e-02 
  4.759527391449e-02 
  5.059958907042e-02 
  5.320577520881e-02 
  5.544853409944e-02 
  4.995434746895e-02 
  5.271353104896e-02 
  5.506445863857e-02 
  5.238705624247e-02 
  5.482734000557e-02 
  5.477382082655e-02 
  5.956403657872e-02 
  5.716992644809e-02 
  5.815916311454e-02 
  5.828428372089e-02 
  5.840376244836e-02 
  6.015678668745e-02 
  5.782115991478e-02 
  5.794004499512e-02 
  5.828140942293e-02 
  5.809721508923e-02 
  5.831594699404e-02 
  5.809536977604e-02 
  5.822373467332e-02 
  5.829078396031e-02 
  5.798360556151e-02 
  5.881902363193e-02 
  5.824729402933e-02 
  5.819840020044e-02 
  5.871125252306e-02 
  5.833726351669e-02 
  5.824718769646e-02 
  5.557064740181e-02 
  5.752120265225e-02 
  5.933293801879e-02 
  6.103311551509e-02 
  6.262185573002e-02 
  6.410970670868e-02 
  5.755739757772e-02 
  5.942430464812e-02 
  6.118937231745e-02 
  6.285545262570e-02 
  6.442388581611e-02 
  5.899319443847e-02 
  6.077632137150e-02 
  6.248476146513e-02 
  6.412077852481e-02 
  6.024334866022e-02 
  6.195188078729e-02 
  6.361903491678e-02 
  6.141954215293e-02 
  6.307743044622e-02 
  6.255780788891e-02 
  1.633885742950e-06 
  2.341621325311e-02 
  3.822717406936e-02 
  4.713187816375e-02 
  5.237992656488e-02 
  5.557160605644e-02 
  2.210009558640e-02 
  3.628507413355e-02 
  4.496821142425e-02 
  5.020304926858e-02 
  5.349554994778e-02 
  3.409669352510e-02 
  4.256186895436e-02 
  4.781366094741e-02 
  5.122605790562e-02 
  3.984933601275e-02 
  4.515508518054e-02 
  4.873725542718e-02 
  4.216079477123e-02 
  4.597817323660e-02 
  4.289626823708e-02 
  5.659921530544e-02 
  5.778378784195e-02 
  5.896241514182e-02 
  6.015006905814e-02 
  6.134370859502e-02 
  6.255715975884e-02 
  5.771249479886e-02 
  5.876064442760e-02 
  5.983516470885e-02 
  6.094111392273e-02 
  6.208027104439e-02 
  5.872561128229e-02 
  5.965318849010e-02 
  6.062941690414e-02 
  6.166233731955e-02 
  5.962361731340e-02 
  6.043423779096e-02 
  6.131932005271e-02 
  6.038073426243e-02 
  6.107665114524e-02 
  6.095853635711e-02 
  6.255686800255e-02 
  6.134388932438e-02 
  6.015002232274e-02 
  5.896253909427e-02 
  5.778380300502e-02 
  5.659956787318e-02 
  6.142013071752e-02 
  6.017247759461e-02 
  5.891287149542e-02 
  5.763845029569e-02 
  5.634422596205e-02 
  6.024329745004e-02 
  5.893247484939e-02 
  5.758924508034e-02 
  5.620845350116e-02 
  5.899356480138e-02 
  5.760698344207e-02 
  5.616609073866e-02 
  5.755759242490e-02 
  5.608775010723e-02 
  5.557172263323e-02 
  6.611880787755e-02 
  6.468649708996e-02 
  6.351236973253e-02 
  6.253365844112e-02 
  6.169955775984e-02 
  6.095854341072e-02 
  6.581548430526e-02 
  6.439416136347e-02 
  6.316170591012e-02 
  6.206902311901e-02 
  6.107658393560e-02 
  6.523164451584e-02 
  6.381495105584e-02 
  6.252216625936e-02 
  6.131927578800e-02 
  6.445426714441e-02 
  6.302354099728e-02 
  6.166226721543e-02 
  6.354507315330e-02 
  6.208012166275e-02 
  6.255761991863e-02 
  5.659781403383e-02 
  5.771253785095e-02 
  5.872555133744e-02 
  5.962357714096e-02 
  6.038086389256e-02 
  6.095833932783e-02 
  5.597074473251e-02 
  5.718703012415e-02 
  5.829742489622e-02 
  5.927518732808e-02 
  6.009582257056e-02 
  5.544894350969e-02 
  5.678983477905e-02 
  5.800610052416e-02 
  5.907579887352e-02 
  5.506368808659e-02 
  5.653628234937e-02 
  5.786913438945e-02 
  5.482740130915e-02 
  5.644326496690e-02 
  5.477247865131e-02 
  6.611832837608e-02 
  6.581550388998e-02 
  6.523161881799e-02 
  6.445432260171e-02 
  6.354488627153e-02 
  6.255867296877e-02 
  6.733009476746e-02 
  6.677046512332e-02 
  6.601306015658e-02 
  6.512830848499e-02 
  6.416349070278e-02 
  6.849566115978e-02 
  6.769232767406e-02 
  6.677395365384e-02 
  6.579535509433e-02 
  6.957397532764e-02 
  6.855198134541e-02 
  6.749496832075e-02 
  7.053965038471e-02 
  6.932823288014e-02 
  7.136970206336e-02 
  5.557184711396e-02 
  5.608812575384e-02 
  5.616639446003e-02 
  5.620849388380e-02 
  5.634434104012e-02 
  5.659778880363e-02 
  5.349578665390e-02 
  5.400046337253e-02 
  5.413811850437e-02 
  5.428806890455e-02 
  5.457453489673e-02 
  5.122616468906e-02 
  5.175034251185e-02 
  5.197582852716e-02 
  5.227023573799e-02 
  4.873741759599e-02 
  4.930104797344e-02 
  4.965575086185e-02 
  4.597835776142e-02 
  4.661553274554e-02 
  4.289595968724e-02 
  9.945978374602e-08 
 -1.353826192403e-07 
 -6.079079349302e-08 
 -1.575616552400e-07 
 -1.271032872929e-07 
 -6.177854379288e-07 
  3.294714695265e-02 
  3.283630073394e-02 
  3.254960144037e-02 
  3.212783191277e-02 
  3.161531908954e-02 
  5.226805401899e-02 
  5.205086367318e-02 
  5.156104725087e-02 
  5.086875137107e-02 
  6.276479010616e-02 
  6.243649086461e-02 
  6.179573528755e-02 
  6.805951813110e-02 
  6.760726206054e-02 
  7.057008874153e-02 
  6.417292391341e-02 
  6.277871732898e-02 
  6.108857788318e-02 
  5.916013421891e-02 
  5.703740764359e-02 
  5.477264439649e-02 
  6.274613893708e-02 
  6.150527155128e-02 
  6.001614492666e-02 
  5.831476607359e-02 
  5.644312836793e-02 
  6.171705060911e-02 
  6.065029127033e-02 
  5.935467742254e-02 
  5.786929980487e-02 
  6.108373695662e-02 
  6.019020532420e-02 
  5.907596675266e-02 
  6.084699649745e-02 
  6.009583782056e-02 
  6.095806518322e-02 
  7.444959491191e-02 
  7.304253303964e-02 
  7.065166353862e-02 
  6.815417212551e-02 
  6.595859855581e-02 
  6.417481536998e-02 
  7.546049254058e-02 
  7.287070641907e-02 
  7.007560931738e-02 
  6.751764540952e-02 
  6.532919519473e-02 
  7.476327621726e-02 
  7.169233673285e-02 
  6.881190933415e-02 
  6.626452588032e-02 
  7.302984770011e-02 
  6.985884088385e-02 
  6.699181779400e-02 
  7.068297764727e-02 
  6.752492026514e-02 
  6.788708684497e-02 
  7.445121552881e-02 
  7.180276439886e-02 
  6.882556210429e-02 
  6.551799352900e-02 
  6.187862144990e-02 
  5.790749973970e-02 
  7.304225370109e-02 
  7.042929126301e-02 
  6.749850390643e-02 
  6.425076951708e-02 
  6.068429156354e-02 
  7.065291400553e-02 
  6.826307968868e-02 
  6.557046080435e-02 
  6.259737595086e-02 
  6.815308414106e-02 
  6.608922906209e-02 
  6.375765727826e-02 
  6.595826783147e-02 
  6.426186972425e-02 
  6.417451815973e-02 
  7.445067571860e-02 
  7.545957373079e-02 
  7.476310096260e-02 
  7.303000730905e-02 
  7.068380689779e-02 
  6.788507055511e-02 
  7.676779255964e-02 
  7.740365810950e-02 
  7.624118197303e-02 
  7.402620158093e-02 
  7.125974152880e-02 
  7.875286382427e-02 
  7.903577517328e-02 
  7.743663761787e-02 
  7.479089290990e-02 
  8.040608892094e-02 
  8.034492774462e-02 
  7.834375730121e-02 
  8.172930586688e-02 
  8.134561363039e-02 
  8.272170096260e-02 
  6.788979505286e-02 
  6.752415061625e-02 
  6.699193718958e-02 
  6.626541232515e-02 
  6.533049084924e-02 
  6.417247642303e-02 
  6.507416676922e-02 
  6.495824149386e-02 
  6.473580988725e-02 
  6.435240846385e-02 
  6.376940049272e-02 
  6.239627020935e-02 
  6.260589642341e-02 
  6.274937618749e-02 
  6.274661756573e-02 
  5.983513259919e-02 
  6.046730818139e-02 
  6.105212619010e-02 
  5.739083950964e-02 
  5.856009919225e-02 
  5.510058736700e-02 
  5.306556436291e-02 
  5.654140170276e-02 
  5.974150157961e-02 
  6.267003986612e-02 
  6.537425635958e-02 
  6.789050122114e-02 
  5.281830020251e-02 
  5.644454301630e-02 
  5.964517819633e-02 
  6.250226921630e-02 
  6.507393011133e-02 
  5.293321197482e-02 
  5.656563952339e-02 
  5.968294136055e-02 
  6.239626076209e-02 
  5.337996473059e-02 
  5.689176978089e-02 
  5.983519774236e-02 
  5.411916992550e-02 
  5.739091023935e-02 
  5.510022502251e-02 
  6.788905239792e-02 
  6.814748542268e-02 
  6.834971283997e-02 
  6.848633550148e-02 
  6.855320385936e-02 
  6.853444163286e-02 
  7.125911156715e-02 
  7.170491314118e-02 
  7.198990341368e-02 
  7.211241631249e-02 
  7.208603146147e-02 
  7.479269530763e-02 
  7.537966884786e-02 
  7.571609032153e-02 
  7.581286774050e-02 
  7.834222189492e-02 
  7.900983357490e-02 
  7.937540081116e-02 
  8.134640876707e-02 
  8.205138735249e-02 
  8.271805012803e-02 
  6.417096679363e-02 
  6.302654123221e-02 
  6.201800127412e-02 
  6.117715959680e-02 
  6.054684917240e-02 
  6.025887772811e-02 
  6.376973623692e-02 
  6.235543399122e-02 
  6.106981509252e-02 
  5.992736769531e-02 
  5.901400850152e-02 
  6.274624240261e-02 
  6.101904108092e-02 
  5.936173272150e-02 
  5.780532359999e-02 
  6.105181789604e-02 
  5.889243048048e-02 
  5.670212117148e-02 
  5.856003413628e-02 
  5.577959875588e-02 
  5.510054510386e-02 
  6.264451539331e-02 
  5.890829527850e-02 
  5.719016390161e-02 
  5.763785592345e-02 
  5.975038544843e-02 
  5.954783249486e-02 
  5.826710547443e-02 
  5.813459944815e-02 
  5.811857016413e-02 
  6.003808456041e-02 
  6.330801198980e-02 
  5.799961175472e-02 
  5.764058500741e-02 
  5.746264356935e-02 
  5.753946904174e-02 
  5.599556055680e-02 
  5.719879628572e-02 
  5.507420604848e-02 
  4.480305255811e-02 
  5.163643126335e-02 
  1.535262426471e-04 
  5.194495632655e-02 
  5.473392117971e-02 
  5.675435362599e-02 
  5.826940902404e-02 
  5.940687865207e-02 
  6.026428353205e-02 
  5.468876826779e-02 
  5.689566595622e-02 
  5.845514537648e-02 
  5.959922834709e-02 
  6.042920535961e-02 
  5.764287880368e-02 
  5.921604767746e-02 
  6.027220573906e-02 
  6.101559091311e-02 
  6.071516507003e-02 
  6.162209869223e-02 
  6.215170409457e-02 
  6.380148136230e-02 
  6.403543001199e-02 
  6.680250526033e-02 
  6.025856327737e-02 
  6.054689218859e-02 
  6.117705283204e-02 
  6.201827168380e-02 
  6.302648875561e-02 
  6.417159019404e-02 
  6.121266885443e-02 
  6.120830837961e-02 
  6.151662577763e-02 
  6.204675881571e-02 
  6.274583381277e-02 
  6.170029426163e-02 
  6.144516863243e-02 
  6.147863524842e-02 
  6.171653675773e-02 
  6.178230480993e-02 
  6.131268554669e-02 
  6.108398642323e-02 
  6.152435592346e-02 
  6.084678879257e-02 
  6.095852799134e-02 
  2.059235129144e-02 
  2.554516291001e-02 
  2.992211983541e-02 
  3.375892957879e-02 
  3.712677258645e-02 
  4.010634718087e-02 
  2.246424317568e-02 
  2.728965134219e-02 
  3.151257706289e-02 
  3.518450862735e-02 
  3.837264119094e-02 
  2.485720797867e-02 
  2.956765814917e-02 
  3.356906432189e-02 
  3.700221929068e-02 
  2.782698263695e-02 
  3.233813129748e-02 
  3.605231090367e-02 
  3.137092888846e-02 
  3.556108579616e-02 
  3.540581879609e-02 
  4.010257445534e-02 
  4.419787823362e-02 
  4.760766454465e-02 
  5.048067881153e-02 
  5.294477869331e-02 
  5.510140779193e-02 
  4.167551651611e-02 
  4.547301773926e-02 
  4.860743070206e-02 
  5.124971159691e-02 
  5.351042223479e-02 
  4.374524835865e-02 
  4.710748122169e-02 
  4.988230641097e-02 
  5.223054361245e-02 
  4.622296713067e-02 
  4.905110330697e-02 
  5.139229958427e-02 
  4.899291541227e-02 
  5.122775241674e-02 
  5.194679939541e-02 
  5.194278612219e-02 
  5.003350763067e-02 
  4.760076088896e-02 
  4.453107386188e-02 
  4.056685601556e-02 
  3.540674407732e-02 
  4.899197164046e-02 
  4.659610910863e-02 
  4.367065057753e-02 
  4.005799630921e-02 
  3.556111133620e-02 
  4.622292692206e-02 
  4.342758629989e-02 
  4.007817416765e-02 
  3.605215236534e-02 
  4.374494655846e-02 
  4.065083088687e-02 
  3.700188903872e-02 
  4.167474196704e-02 
  3.837287289508e-02 
  4.010581325791e-02 
  4.010102808740e-02 
  4.185250706472e-02 
  4.433826045193e-02 
  4.718091387071e-02 
  5.013401452714e-02 
  5.306423637308e-02 
  4.419827124010e-02 
  4.567944971029e-02 
  4.778143122419e-02 
  5.022656405125e-02 
  5.281787343477e-02 
  4.760767857674e-02 
  4.891556097772e-02 
  5.076375172347e-02 
  5.293261240179e-02 
  5.048050429114e-02 
  5.169576284765e-02 
  5.337958842543e-02 
  5.294494355966e-02 
  5.411905689660e-02 
  5.510012179920e-02 
  6.611899811041e-02 
  6.665700854291e-02 
  6.707138893909e-02 
  6.732920652151e-02 
  6.733014038369e-02 
  6.680355957519e-02 
  6.502241797356e-02 
  6.521480016458e-02 
  6.518029615278e-02 
  6.483764008268e-02 
  6.403525381775e-02 
  6.383509844428e-02 
  6.364920836074e-02 
  6.312815447290e-02 
  6.215199122998e-02 
  6.260806744959e-02 
  6.202995019154e-02 
  6.101535006697e-02 
  6.139508356964e-02 
  6.042933355722e-02 
  6.026349835530e-02 
  5.194832170232e-02 
  5.122735902032e-02 
  5.139265968573e-02 
  5.223041479784e-02 
  5.351055211112e-02 
  5.510100709434e-02 
  5.473341364071e-02 
  5.399701344719e-02 
  5.405938489240e-02 
  5.470706967612e-02 
  5.578044419691e-02 
  5.675479422413e-02 
  5.612031937791e-02 
  5.615358541092e-02 
  5.670292900981e-02 
  5.826920588464e-02 
  5.775539159848e-02 
  5.780636065348e-02 
  5.940718329126e-02 
  5.901443943924e-02 
  6.026170743933e-02 
  6.611941129702e-02 
  6.502208415144e-02 
  6.383472504706e-02 
  6.260735294285e-02 
  6.139462588248e-02 
  6.026039934811e-02 
  6.468645611211e-02 
  6.381975933816e-02 
  6.292599053311e-02 
  6.204182297353e-02 
  6.121242426526e-02 
  6.351253366306e-02 
  6.288088818874e-02 
  6.226659003440e-02 
  6.170044862871e-02 
  6.253356284828e-02 
  6.213269525891e-02 
  6.178220779030e-02 
  6.169971552683e-02 
  6.152474372084e-02 
  6.095801673510e-02 
  4.010406393503e-02 
  3.712740101227e-02 
  3.375864831460e-02 
  2.992172228524e-02 
  2.554518874200e-02 
  2.059365210399e-02 
  3.813050800135e-02 
  3.491034755037e-02 
  3.126126533734e-02 
  2.713777459893e-02 
  2.251776763219e-02 
  3.664141725034e-02 
  3.325956398172e-02 
  2.945748795378e-02 
  2.520241217133e-02 
  3.569497994618e-02 
  3.226532142391e-02 
  2.844760058360e-02 
  3.532890197610e-02 
  3.196770348383e-02 
  3.553153118178e-02 
  7.137118117474e-02 
  6.932832908748e-02 
  6.749542349502e-02 
  6.579523379765e-02 
  6.416372744867e-02 
  6.255804298924e-02 
  6.988885953633e-02 
  6.807185609396e-02 
  6.635951968173e-02 
  6.470835929006e-02 
  6.307787380482e-02 
  6.850773833110e-02 
  6.684224119701e-02 
  6.522557037405e-02 
  6.361901595745e-02 
  6.726837205435e-02 
  6.571457411648e-02 
  6.412141405996e-02 
  6.609612355240e-02 
  6.442394662565e-02 
  6.411417495634e-02 
  6.790882258354e-02 
  5.778585215313e-02 
  5.798655552702e-02 
  5.829257750624e-02 
  5.832441820235e-02 
  6.203613574733e-02 
  6.106133211720e-02 
  5.836850547962e-02 
  5.838740957211e-02 
  5.855232630857e-02 
  5.736048228995e-02 
  5.853631535903e-02 
  5.858705730381e-02 
  5.852981955776e-02 
  5.824456098002e-02 
  5.738002749459e-02 
  5.805019336961e-02 
  6.294798652217e-02 
  5.881479077269e-02 
  6.282221869755e-02 
  6.170625065667e-02 
  7.516051003586e-02 
  7.391253047418e-02 
  7.286101951473e-02 
  7.197872464427e-02 
  7.110284617339e-02 
  6.951925913776e-02 
  7.581429040028e-02 
  7.445753672580e-02 
  7.332710926771e-02 
  7.239132963351e-02 
  7.143772470401e-02 
  7.631600344594e-02 
  7.486582317729e-02 
  7.367939494651e-02 
  7.270009193986e-02 
  7.664819135840e-02 
  7.513416335489e-02 
  7.391397635457e-02 
  7.680851762598e-02 
  7.526098622896e-02 
  7.679827111441e-02 
  7.515979985976e-02 
  7.469912921784e-02 
  7.408165426116e-02 
  7.331011946909e-02 
  7.239660934992e-02 
  7.137004060844e-02 
  7.267956313601e-02 
  7.214081734373e-02 
  7.149019131474e-02 
  7.073717154718e-02 
  6.988893122531e-02 
  7.055009005602e-02 
  6.994130400199e-02 
  6.925779080142e-02 
  6.850750964695e-02 
  6.864749019520e-02 
  6.799253609720e-02 
  6.726838949766e-02 
  6.672192269620e-02 
  6.609578909114e-02 
  6.411527886000e-02 
  6.611858745149e-02 
  6.777016027529e-02 
  6.984545573774e-02 
  7.252115577375e-02 
  7.597080147564e-02 
  8.029154647877e-02 
  6.665667100638e-02 
  6.847136677742e-02 
  7.085154089304e-02 
  7.399292755139e-02 
  7.798574866801e-02 
  6.707094856403e-02 
  6.910572697929e-02 
  7.185126518670e-02 
  7.542476831484e-02 
  6.732891146956e-02 
  6.960878717921e-02 
  7.265742806606e-02 
  6.733021833074e-02 
  6.975570931690e-02 
  6.680178127120e-02 
  8.029197318638e-02 
  7.597084065907e-02 
  7.252129667333e-02 
  6.984549984013e-02 
  6.777025264704e-02 
  6.611840073719e-02 
  7.825490260742e-02 
  7.455923086263e-02 
  7.160550006093e-02 
  6.924910927588e-02 
  6.732959112878e-02 
  7.624925990188e-02 
  7.315210449957e-02 
  7.060974762756e-02 
  6.849528245299e-02 
  7.443842048084e-02 
  7.181156424553e-02 
  6.957323704213e-02 
  7.282045769930e-02 
  7.053882247422e-02 
  7.136783250503e-02 
  8.937050753133e-02 
  8.821290032806e-02 
  8.669613970425e-02 
  8.484086326601e-02 
  8.268445637718e-02 
  8.029472261614e-02 
  8.437349884810e-02 
  8.319113791731e-02 
  8.175008821508e-02 
  8.008864873871e-02 
  7.825461018175e-02 
  8.011056820622e-02 
  7.897455835261e-02 
  7.767754747177e-02 
  7.624960374484e-02 
  7.662249986021e-02 
  7.557987535841e-02 
  7.443806686885e-02 
  7.376613984331e-02 
  7.282030833750e-02 
  7.136637309221e-02 
  7.419174538427e-02 
  7.482272600509e-02 
  7.346261705934e-02 