# vtk DataFile Version 2
NuDG++ 2D simulation
ASCII
DATASET UNSTRUCTURED_GRID

POINTS 7854 double
 -1.656250060000e-01  -2.000000030000e-01  0.0
 -1.725000054000e-01  -1.908888817000e-01  0.0
 -1.793750048000e-01  -1.817777604000e-01  0.0
 -1.862500042000e-01  -1.726666391000e-01  0.0
 -1.931250036000e-01  -1.635555178000e-01  0.0
 -2.000000030000e-01  -1.544443965000e-01  0.0
 -1.725000054000e-01  -2.000000030000e-01  0.0
 -1.793750048000e-01  -1.908888817000e-01  0.0
 -1.862500042000e-01  -1.817777604000e-01  0.0
 -1.931250036000e-01  -1.726666391000e-01  0.0
 -2.000000030000e-01  -1.635555178000e-01  0.0
 -1.793750048000e-01  -2.000000030000e-01  0.0
 -1.862500042000e-01  -1.908888817000e-01  0.0
 -1.931250036000e-01  -1.817777604000e-01  0.0
 -2.000000030000e-01  -1.726666391000e-01  0.0
 -1.862500042000e-01  -2.000000030000e-01  0.0
 -1.931250036000e-01  -1.908888817000e-01  0.0
 -2.000000030000e-01  -1.817777604000e-01  0.0
 -1.931250036000e-01  -2.000000030000e-01  0.0
 -2.000000030000e-01  -1.908888817000e-01  0.0
 -2.000000030000e-01  -2.000000030000e-01  0.0
 -6.428571790000e-02  -1.700000018000e-01  0.0
 -7.080357372400e-02  -1.760000020400e-01  0.0
 -7.732142954800e-02  -1.820000022800e-01  0.0
 -8.383928537200e-02  -1.880000025200e-01  0.0
 -9.035714119600e-02  -1.940000027600e-01  0.0
 -9.687499702000e-02  -2.000000030000e-01  0.0
 -6.392857432000e-02  -1.760000020400e-01  0.0
 -7.044643014400e-02  -1.820000022800e-01  0.0
 -7.696428596800e-02  -1.880000025200e-01  0.0
 -8.348214179200e-02  -1.940000027600e-01  0.0
 -8.999999761600e-02  -2.000000030000e-01  0.0
 -6.357143074000e-02  -1.820000022800e-01  0.0
 -7.008928656400e-02  -1.880000025200e-01  0.0
 -7.660714238800e-02  -1.940000027600e-01  0.0
 -8.312499821200e-02  -2.000000030000e-01  0.0
 -6.321428716000e-02  -1.880000025200e-01  0.0
 -6.973214298400e-02  -1.940000027600e-01  0.0
 -7.624999880800e-02  -2.000000030000e-01  0.0
 -6.285714358000e-02  -1.940000027600e-01  0.0
 -6.937499940400e-02  -2.000000030000e-01  0.0
 -6.250000000000e-02  -2.000000030000e-01  0.0
 -2.000000030000e-01  -1.544443965000e-01  0.0
 -1.900000036000e-01  -1.478412374800e-01  0.0
 -1.800000042000e-01  -1.412380784600e-01  0.0
 -1.700000048000e-01  -1.346349194400e-01  0.0
 -1.600000054000e-01  -1.280317604200e-01  0.0
 -1.500000060000e-01  -1.214286014000e-01  0.0
 -2.000000030000e-01  -1.453332975600e-01  0.0
 -1.900000036000e-01  -1.387301385400e-01  0.0
 -1.800000042000e-01  -1.321269795200e-01  0.0
 -1.700000048000e-01  -1.255238205000e-01  0.0
 -1.600000054000e-01  -1.189206614800e-01  0.0
 -2.000000030000e-01  -1.362221986200e-01  0.0
 -1.900000036000e-01  -1.296190396000e-01  0.0
 -1.800000042000e-01  -1.230158805800e-01  0.0
 -1.700000048000e-01  -1.164127215600e-01  0.0
 -2.000000030000e-01  -1.271110996800e-01  0.0
 -1.900000036000e-01  -1.205079406600e-01  0.0
 -1.800000042000e-01  -1.139047816400e-01  0.0
 -2.000000030000e-01  -1.180000007400e-01  0.0
 -1.900000036000e-01  -1.113968417200e-01  0.0
 -2.000000030000e-01  -1.088889018000e-01  0.0
 -1.500000060000e-01  -1.214286014000e-01  0.0
 -1.600000054000e-01  -1.280317604200e-01  0.0
 -1.700000048000e-01  -1.346349194400e-01  0.0
 -1.800000042000e-01  -1.412380784600e-01  0.0
 -1.900000036000e-01  -1.478412374800e-01  0.0
 -2.000000030000e-01  -1.544443965000e-01  0.0
 -1.500000060000e-01  -1.311428814800e-01  0.0
 -1.600000054000e-01  -1.377460405000e-01  0.0
 -1.700000048000e-01  -1.443491995200e-01  0.0
 -1.800000042000e-01  -1.509523585400e-01  0.0
 -1.900000036000e-01  -1.575555175600e-01  0.0
 -1.500000060000e-01  -1.408571615600e-01  0.0
 -1.600000054000e-01  -1.474603205800e-01  0.0
 -1.700000048000e-01  -1.540634796000e-01  0.0
 -1.800000042000e-01  -1.606666386200e-01  0.0
 -1.500000060000e-01  -1.505714416400e-01  0.0
 -1.600000054000e-01  -1.571746006600e-01  0.0
 -1.700000048000e-01  -1.637777596800e-01  0.0
 -1.500000060000e-01  -1.602857217200e-01  0.0
 -1.600000054000e-01  -1.668888807400e-01  0.0
 -1.500000060000e-01  -1.700000018000e-01  0.0
 -1.500000060000e-01  -7.285714149000e-02  0.0
 -1.600000054000e-01  -8.006349355200e-02  0.0
 -1.700000048000e-01  -8.726984561400e-02  0.0
 -1.800000042000e-01  -9.447619767600e-02  0.0
 -1.900000036000e-01  -1.016825497380e-01  0.0
 -2.000000030000e-01  -1.088889018000e-01  0.0
 -1.500000060000e-01  -8.257143347200e-02  0.0
 -1.600000054000e-01  -8.977778553400e-02  0.0
 -1.700000048000e-01  -9.698413759600e-02  0.0
 -1.800000042000e-01  -1.041904896580e-01  0.0
 -1.900000036000e-01  -1.113968417200e-01  0.0
 -1.500000060000e-01  -9.228572545400e-02  0.0
 -1.600000054000e-01  -9.949207751600e-02  0.0
 -1.700000048000e-01  -1.066984295780e-01  0.0
 -1.800000042000e-01  -1.139047816400e-01  0.0
 -1.500000060000e-01  -1.020000174360e-01  0.0
 -1.600000054000e-01  -1.092063694980e-01  0.0
 -1.700000048000e-01  -1.164127215600e-01  0.0
 -1.500000060000e-01  -1.117143094180e-01  0.0
 -1.600000054000e-01  -1.189206614800e-01  0.0
 -1.500000060000e-01  -1.214286014000e-01  0.0
  1.832975030000e+00  -4.625000060000e-02  0.0
  1.841380024000e+00  -7.700000108000e-02  0.0
  1.849785018000e+00  -1.077500015600e-01  0.0
  1.858190012000e+00  -1.385000020400e-01  0.0
  1.866595006000e+00  -1.692500025200e-01  0.0
  1.875000000000e+00  -2.000000030000e-01  0.0
  1.866380024000e+00  -5.649999976400e-02  0.0
  1.874785018000e+00  -8.725000024400e-02  0.0
  1.883190012000e+00  -1.180000007240e-01  0.0
  1.891595006000e+00  -1.487500012040e-01  0.0
  1.900000000000e+00  -1.795000016840e-01  0.0
  1.899785018000e+00  -6.674999892800e-02  0.0
  1.908190012000e+00  -9.749999940800e-02  0.0
  1.916595006000e+00  -1.282499998880e-01  0.0
  1.925000000000e+00  -1.590000003680e-01  0.0
  1.933190012000e+00  -7.699999809200e-02  0.0
  1.941595006000e+00  -1.077499985720e-01  0.0
  1.950000000000e+00  -1.384999990520e-01  0.0
  1.966595006000e+00  -8.724999725600e-02  0.0
  1.975000000000e+00  -1.179999977360e-01  0.0
  2.000000000000e+00  -9.749999642000e-02  0.0
 -1.500000060000e-01  -1.700000018000e-01  0.0
 -1.444000050800e-01  -1.630000025200e-01  0.0
 -1.388000041600e-01  -1.560000032400e-01  0.0
 -1.332000032400e-01  -1.490000039600e-01  0.0
 -1.276000023200e-01  -1.420000046800e-01  0.0
 -1.220000014000e-01  -1.350000054000e-01  0.0
 -1.500000060000e-01  -1.602857217200e-01  0.0
 -1.444000050800e-01  -1.532857224400e-01  0.0
 -1.388000041600e-01  -1.462857231600e-01  0.0
 -1.332000032400e-01  -1.392857238800e-01  0.0
 -1.276000023200e-01  -1.322857246000e-01  0.0
 -1.500000060000e-01  -1.505714416400e-01  0.0
 -1.444000050800e-01  -1.435714423600e-01  0.0
 -1.388000041600e-01  -1.365714430800e-01  0.0
 -1.332000032400e-01  -1.295714438000e-01  0.0
 -1.500000060000e-01  -1.408571615600e-01  0.0
 -1.444000050800e-01  -1.338571622800e-01  0.0
 -1.388000041600e-01  -1.268571630000e-01  0.0
 -1.500000060000e-01  -1.311428814800e-01  0.0
 -1.444000050800e-01  -1.241428822000e-01  0.0
 -1.500000060000e-01  -1.214286014000e-01  0.0
  2.849999964000e-01  -2.333333530000e-02  0.0
  2.844999968800e-01  -4.666666836000e-02  0.0
  2.839999973600e-01  -7.000000142000e-02  0.0
  2.834999978400e-01  -9.333333448000e-02  0.0
  2.829999983200e-01  -1.166666675400e-01  0.0
  2.824999988000e-01  -1.400000006000e-01  0.0
  2.979999959200e-01  -3.266666830000e-02  0.0
  2.974999964000e-01  -5.600000136000e-02  0.0
  2.969999968800e-01  -7.933333442000e-02  0.0
  2.964999973600e-01  -1.026666674800e-01  0.0
  2.959999978400e-01  -1.260000005400e-01  0.0
  3.109999954400e-01  -4.200000130000e-02  0.0
  3.104999959200e-01  -6.533333436000e-02  0.0
  3.099999964000e-01  -8.866666742000e-02  0.0
  3.094999968800e-01  -1.120000004800e-01  0.0
  3.239999949600e-01  -5.133333430000e-02  0.0
  3.234999954400e-01  -7.466666736000e-02  0.0
  3.229999959200e-01  -9.800000042000e-02  0.0
  3.369999944800e-01  -6.066666730000e-02  0.0
  3.364999949600e-01  -8.400000036000e-02  0.0
  3.499999940000e-01  -7.000000030000e-02  0.0
 -1.071429029000e-01  -1.700000018000e-01  0.0
 -9.857146590000e-02  -1.700000018000e-01  0.0
 -9.000002890000e-02  -1.700000018000e-01  0.0
 -8.142859190000e-02  -1.700000018000e-01  0.0
 -7.285715490000e-02  -1.700000018000e-01  0.0
 -6.428571790000e-02  -1.700000018000e-01  0.0
 -1.037143230360e-01  -1.630000025200e-01  0.0
 -9.514288603600e-02  -1.630000025200e-01  0.0
 -8.657144903600e-02  -1.630000025200e-01  0.0
 -7.800001203600e-02  -1.630000025200e-01  0.0
 -6.942857503600e-02  -1.630000025200e-01  0.0
 -1.002857431720e-01  -1.560000032400e-01  0.0
 -9.171430617200e-02  -1.560000032400e-01  0.0
 -8.314286917200e-02  -1.560000032400e-01  0.0
 -7.457143217200e-02  -1.560000032400e-01  0.0
 -9.685716330800e-02  -1.490000039600e-01  0.0
 -8.828572630800e-02  -1.490000039600e-01  0.0
 -7.971428930800e-02  -1.490000039600e-01  0.0
 -9.342858344400e-02  -1.420000046800e-01  0.0
 -8.485714644400e-02  -1.420000046800e-01  0.0
 -9.000000358000e-02  -1.350000054000e-01  0.0
 -1.312499940000e-01  -2.000000030000e-01  0.0
 -1.264285757800e-01  -1.940000027600e-01  0.0
 -1.216071575600e-01  -1.880000025200e-01  0.0
 -1.167857393400e-01  -1.820000022800e-01  0.0
 -1.119643211200e-01  -1.760000020400e-01  0.0
 -1.071429029000e-01  -1.700000018000e-01  0.0
 -1.349999964000e-01  -1.940000027600e-01  0.0
 -1.301785781800e-01  -1.880000025200e-01  0.0
 -1.253571599600e-01  -1.820000022800e-01  0.0
 -1.205357417400e-01  -1.760000020400e-01  0.0
 -1.157143235200e-01  -1.700000018000e-01  0.0
 -1.387499988000e-01  -1.880000025200e-01  0.0
 -1.339285805800e-01  -1.820000022800e-01  0.0
 -1.291071623600e-01  -1.760000020400e-01  0.0
 -1.242857441400e-01  -1.700000018000e-01  0.0
 -1.425000012000e-01  -1.820000022800e-01  0.0
 -1.376785829800e-01  -1.760000020400e-01  0.0
 -1.328571647600e-01  -1.700000018000e-01  0.0
 -1.462500036000e-01  -1.760000020400e-01  0.0
 -1.414285853800e-01  -1.700000018000e-01  0.0
 -1.500000060000e-01  -1.700000018000e-01  0.0
[...]
POINT_DATA 7854
SCALARS field1 double 1
LOOKUP_TABLE default
 -3.523082875986e-06 
  1.410833089685e-02 
  1.689253381682e-02 
  1.756355171489e-02 
  1.949799753393e-02 
  2.297227778413e-02 
 -3.434057622859e-06 
  1.164475870949e-02 
  1.388088221553e-02 
  1.542124377497e-02 
  1.883218005889e-02 
  2.017752572163e-06 
  8.867605089158e-03 
  1.119750064333e-02 
  1.447374400389e-02 
  8.117576977901e-06 
  6.292125127470e-03 
  9.882148918405e-03 
 -2.941511005012e-06 
  5.050812840193e-03 
  2.555719048999e-06 
  4.434026636191e-02 
  4.268112157608e-02 
  3.964545298594e-02 
  3.354587396900e-02 
  2.159756627108e-02 
 -6.311644649976e-07 
  4.344716940343e-02 
  4.041295671735e-02 
  3.425526147603e-02 
  2.209262415101e-02 
 -2.239199147666e-07 
  4.113030995194e-02 
  3.491804630293e-02 
  2.255991900198e-02 
 -2.582458573464e-07 
  3.553690216724e-02 
  2.299730669946e-02 
 -2.508205975073e-07 
  2.340329815400e-02 
 -1.408121248486e-07 
 -3.714781346158e-07 
  2.297299285122e-02 
  2.647345447772e-02 
  3.016783350630e-02 
  3.332695197265e-02 
  3.585724993366e-02 
  3.790334673619e-02 
  2.687712768516e-02 
  2.995785867366e-02 
  3.303607956696e-02 
  3.564649262150e-02 
  3.772770696906e-02 
  3.055279946855e-02 
  3.325248750708e-02 
  3.578014980607e-02 
  3.786804539319e-02 
  3.399759546405e-02 
  3.635116404092e-02 
  3.837031378792e-02 
  3.721286117857e-02 
  3.924149117222e-02 
  4.020042733613e-02 
  3.790259656989e-02 
  3.585732642793e-02 
  3.332604115304e-02 
  3.016820186441e-02 
  2.647318472718e-02 
  2.297494852187e-02 
  3.628000447268e-02 
  3.382194938910e-02 
  3.078115964770e-02 
  2.699963368883e-02 
  2.262019904403e-02 
  3.463333951540e-02 
  3.179174705383e-02 
  2.824174093500e-02 
  2.380132636954e-02 
  3.304885253875e-02 
  2.984493723695e-02 
  2.578431298408e-02 
  3.159275484449e-02 
  2.801550806149e-02 
  3.017925555030e-02 
  4.425039400635e-02 
  4.431106327333e-02 
  4.401827773043e-02 
  4.330548059243e-02 
  4.207399185812e-02 
  4.020167909821e-02 
  4.329393720980e-02 
  4.291067938870e-02 
  4.214757135164e-02 
  4.094051086270e-02 
  3.924102101709e-02 
  4.215731664042e-02 
  4.134483119997e-02 
  4.009746247337e-02 
  3.836972684915e-02 
  4.086948542446e-02 
  3.961656529943e-02 
  3.786795218422e-02 
  3.944246546641e-02 
  3.772813293864e-02 
  3.790184312047e-02 
  4.519418571479e-02 
  3.756974335823e-02 
  3.864890175144e-02 
  3.886780405845e-02 
  4.211398573912e-02 
  5.114876481959e-04 
  4.007909635559e-02 
  4.023120343032e-02 
  3.925499243981e-02 
  3.937865929498e-02 
  3.726789669100e-02 
  3.994777101377e-02 
  4.026561593963e-02 
  3.903220474570e-02 
  3.979493440241e-02 
  3.983301522013e-02 
  3.963670934556e-02 
  3.850184979173e-02 
  4.033956786101e-02 
  3.828975875301e-02 
  4.144009892083e-02 
  3.017948709410e-02 
  3.245398697550e-02 
  3.439970347629e-02 
  3.611653313693e-02 
  3.764965276431e-02 
  3.900271609738e-02 
  3.159168130983e-02 
  3.369081113123e-02 
  3.554299674226e-02 
  3.717488234964e-02 
  3.860626876618e-02 
  3.304878880943e-02 
  3.504287046965e-02 
  3.677854139216e-02 
  3.827983148099e-02 
  3.463327875307e-02 
  3.647194791184e-02 
  3.804601536965e-02 
  3.627881758896e-02 
  3.791145649844e-02 
  3.790249808641e-02 
  4.064557716769e-02 
  3.958753086079e-02 
  4.007846796232e-02 
  4.019666876090e-02 
  4.020228192162e-02 
  4.176792838158e-02 
  3.989376103144e-02 
  3.988139637281e-02 
  4.013856252519e-02 
  4.011153584889e-02 
  4.029086530923e-02 
  3.993940788336e-02 
  4.008411990138e-02 
  4.014839701037e-02 
  4.008584791721e-02 
  4.026949260347e-02 
  4.015091422184e-02 
  4.012011839338e-02 
  4.024895199542e-02 
  4.024706718726e-02 
  3.977819224654e-02 
  3.865250268492e-02 
  3.995669534530e-02 
  4.116569138572e-02 
  4.229897821767e-02 
  4.335624291799e-02 
  4.434285200261e-02 
  3.968641643099e-02 
  4.091995642551e-02 
  4.208478804152e-02 
  4.318268263970e-02 
  4.421436825633e-02 
  4.053651440409e-02 
  4.170835543039e-02 
  4.282950747853e-02 
  4.390218884570e-02 
  4.134394589020e-02 
  4.246342217558e-02 
  4.355510069137e-02 
  4.212716856373e-02 
  4.321154597192e-02 
  4.289273555289e-02 
 -1.307533833528e-08 
  1.834840033367e-02 
  2.870372225069e-02 
  3.415500846130e-02 
  3.700415953133e-02 
  3.865276930842e-02 
  1.734935721028e-02 
  2.729184093774e-02 
  3.264107178423e-02 
  3.552093262881e-02 
  3.726647643542e-02 
  2.570209892394e-02 
  3.095704298422e-02 
  3.389415777514e-02 
  3.574786672968e-02 
  2.906012731928e-02 
  3.208522861359e-02 
  3.408307063610e-02 
  3.005042517603e-02 
  3.223958374140e-02 
  3.017896312022e-02 
  3.900514288356e-02 
  3.977726460285e-02 
  4.054577705101e-02 
  4.132052547420e-02 
  4.209942808258e-02 
  4.289214808458e-02 
  3.976031831908e-02 
  4.044178157335e-02 
  4.114085108268e-02 
  4.186112876808e-02 
  4.260341725886e-02 
  4.044799208313e-02 
  4.104932065140e-02 
  4.168326174756e-02 
  4.235517244006e-02 
  4.105928788869e-02 
  4.158285422581e-02 
  4.215676970787e-02 
  4.157739825214e-02 
  4.202518528543e-02 
  4.197490892118e-02 
  4.289192853242e-02 
  4.209958101056e-02 
  4.132050210635e-02 
  4.054584527060e-02 
  3.977729421540e-02 
  3.900540199082e-02 
  4.212758803580e-02 
  4.131199523505e-02 
  4.048833186514e-02 
  3.965490852122e-02 
  3.880743862403e-02 
  4.134378665777e-02 
  4.048462987202e-02 
  3.960393354637e-02 
  3.869851396297e-02 
  4.053674871317e-02 
  3.962532710278e-02 
  3.867807769070e-02 
  3.968653417424e-02 
  3.871459267449e-02 
  3.865326482381e-02 
  4.534501894958e-02 
  4.440541586077e-02 
  4.363791970400e-02 
  4.299942378036e-02 
  4.245690451187e-02 
  4.197503366292e-02 
  4.512244554259e-02 
  4.419205456245e-02 
  4.338606925599e-02 
  4.267214398848e-02 
  4.202511256489e-02 
  4.471687446964e-02 
  4.378939752651e-02 
  4.294343539567e-02 
  4.215674963599e-02 
  4.418386504367e-02 
  4.324679706272e-02 
  4.235514785274e-02 
  4.356368261435e-02 
  4.260331352902e-02 
  4.289258499457e-02 
  3.900437738775e-02 
  3.976036861074e-02 
  4.044793512012e-02 
  4.105925830551e-02 
  4.157757361899e-02 
  4.197456903557e-02 
  3.860596782188e-02 
  3.943219264664e-02 
  4.018481912727e-02 
  4.084895240886e-02 
  4.140781008375e-02 
  3.828003846189e-02 
  3.918946740470e-02 
  4.001383231075e-02 
  4.073917364369e-02 
  3.804540663777e-02 
  3.904401975301e-02 
  3.994795595152e-02 
  3.791147391916e-02 
  3.900888399334e-02 
  3.790163988109e-02 
  4.534459618830e-02 
  4.512243405427e-02 
  4.471682842172e-02 
  4.418390633383e-02 
  4.356352510795e-02 
  4.289347903796e-02 
  4.612318934275e-02 
  4.573296291082e-02 
  4.521319818978e-02 
  4.461005619826e-02 
  4.395374231950e-02 
  4.687197839437e-02 
  4.632159118775e-02 
  4.569615356179e-02 
  4.503177834236e-02 
  4.756279279697e-02 
  4.686890007281e-02 
  4.615299773619e-02 
  4.817925062607e-02 
  4.736139092211e-02 
  4.870380237002e-02 
  3.865316761987e-02 
  3.871495778942e-02 
  3.867833764187e-02 
  3.869856623898e-02 
  3.880739036357e-02 
  3.900447527096e-02 
  3.726672950171e-02 
  3.733461010208e-02 
  3.734388889950e-02 
  3.743938255403e-02 
  3.764945593536e-02 
  3.574800946456e-02 
  3.584717166384e-02 
  3.592244354915e-02 
  3.611667495274e-02 
  3.408329226161e-02 
  3.422838333353e-02 
  3.439913898808e-02 
  3.223971304727e-02 
  3.245375763770e-02 
  3.017922706387e-02 
 -1.105357989958e-07 
 -2.393545633384e-07 
 -1.682352037115e-07 
 -2.868139316963e-07 
 -2.273168392043e-07 
 -9.213284567559e-07 
  2.557699174719e-02 
  2.551023768243e-02 
  2.531661775990e-02 
  2.502253857351e-02 
  2.466134065468e-02 
  3.888169331533e-02 
  3.875042749273e-02 
  3.842575339187e-02 
  3.795635174393e-02 
  4.505531054300e-02 
  4.485005043609e-02 
  4.443335636013e-02 
  4.762982073862e-02 
  4.734104662372e-02 
  4.862849251557e-02 
  4.424926925090e-02 
  4.329267976823e-02 
  4.215702221145e-02 
  4.086993247625e-02 
  3.944269221127e-02 
  3.790164893018e-02 
  4.326599981281e-02 
  4.242041937540e-02 
  4.142320737850e-02 
  4.028056804244e-02 
  3.900879440588e-02 
  4.255858200459e-02 
  4.183297407630e-02 
  4.095686809662e-02 
  3.994807107189e-02 
  4.211475707336e-02 
  4.150153730994e-02 
  4.073933678793e-02 
  4.193262831471e-02 
  4.140782135175e-02 
  4.197423323482e-02 
  5.168554711440e-02 
  5.056430147810e-02 
  4.874984454112e-02 
  4.697235967365e-02 
  4.546352681645e-02 
  4.425131901335e-02 
  5.222008939058e-02 
  5.025104617910e-02 
  4.826151416581e-02 
  4.652008078356e-02 
  4.503772366922e-02 
  5.152842532719e-02 
  4.934074725704e-02 
  4.737722910363e-02 
  4.566412697629e-02 
  5.023461686466e-02 
  4.806776141834e-02 
  4.613992688202e-02 
  4.861617250243e-02 
  4.649434744573e-02 
  4.676170508781e-02 
  5.168542694215e-02 
  4.984702637804e-02 
  4.777998989001e-02 
  4.548422379645e-02 
  4.295768805969e-02 
  4.020043272430e-02 
  5.056445556469e-02 
  4.876984423479e-02 
  4.675322733172e-02 
  4.452323012893e-02 
  4.207372356464e-02 
  4.875045443478e-02 
  4.713073380167e-02 
  4.530983020002e-02 
  4.330483164336e-02 
  4.697185191242e-02 
  4.558461611991e-02 
  4.401941778804e-02 
  4.546291276634e-02 
  4.431107712234e-02 
  4.425234571707e-02 
  5.168539924208e-02 
  5.221946550374e-02 
  5.152783891358e-02 
  5.023491495591e-02 
  4.861634878382e-02 
  4.676207676243e-02 
  5.329414731775e-02 
  5.355291207358e-02 
  5.251673780561e-02 
  5.089984382581e-02 
  4.901317068822e-02 
  5.467192609038e-02 
  5.467056375556e-02 
  5.332269400168e-02 
  5.141523594963e-02 
  5.581951349655e-02 
  5.557271757658e-02 
  5.394054740807e-02 
  5.673875439824e-02 
  5.625744772940e-02 
  5.742680318947e-02 
  4.676167073156e-02 
  4.649340736961e-02 
  4.613954975704e-02 
  4.566471159650e-02 
  4.503853576289e-02 
  4.424872696965e-02 
  4.487271458824e-02 
  4.477893826709e-02 
  4.462873425001e-02 
  4.437632612426e-02 
  4.397731642955e-02 
  4.308589504540e-02 
  4.321098584475e-02 
  4.329827157911e-02 
  4.329012451160e-02 
  4.137738739853e-02 
  4.178259706255e-02 
  4.215849970470e-02 
  3.974912625931e-02 
  4.050848427539e-02 
  3.822006542980e-02 
  3.689141087271e-02 
  3.920243424365e-02 
  4.132934924158e-02 
  4.328085975715e-02 
  4.508173994444e-02 
  4.676145921043e-02 
  3.672964760246e-02 
  3.913700333847e-02 
  4.126450243133e-02 
  4.316490463440e-02 
  4.487262810411e-02 
  3.680520337483e-02 
  3.921559844635e-02 
  4.128506098352e-02 
  4.308574544952e-02 
  3.709759374717e-02 
  3.942663005389e-02 
  4.137760592666e-02 
  3.758046756704e-02 
  3.974913086275e-02 
  3.822040498288e-02 
  4.676267847549e-02 
  4.693764031314e-02 
  4.707312909593e-02 
  4.715353489926e-02 
  4.719061350130e-02 
  4.719389208936e-02 
  4.901318948391e-02 
  4.931790406232e-02 
  4.950270808381e-02 
  4.958088396246e-02 
  4.956067451801e-02 
  5.141592804629e-02 
  5.180543502031e-02 
  5.202900021981e-02 
  5.209546142290e-02 
  5.394019885002e-02 
  5.439102430144e-02 
  5.463600858126e-02 
  5.625759887948e-02 
  5.674195503333e-02 
  5.742586399632e-02 
  4.424721398574e-02 
  4.346481416649e-02 
  4.277591283126e-02 
  4.220229765551e-02 
  4.177162478382e-02 
  4.157424661944e-02 
  4.397767385108e-02 
  4.301679251553e-02 
  4.214622821204e-02 
  4.137737090079e-02 
  4.076619311277e-02 
  4.328979505352e-02 
  4.212564123592e-02 
  4.101613914773e-02 
  3.998123128723e-02 
  4.215834932103e-02 
  4.071713960588e-02 
  3.926353244708e-02 
  4.050841991393e-02 
  3.866386481205e-02 
  3.822061667455e-02 
  4.217295477226e-02 
  4.043735826909e-02 
  3.985550230639e-02 
  3.995961655011e-02 
  4.075191380192e-02 
  4.168253380753e-02 
  4.003937059414e-02 
  4.016296295735e-02 
  4.019517017854e-02 
  4.069872304123e-02 
  4.155686902362e-02 
  3.998811433703e-02 
  3.975148823774e-02 
  3.957118972466e-02 
  3.911286267520e-02 
  3.958176918432e-02 
  4.005832265316e-02 
  3.932908141656e-02 
  3.344343853105e-02 
  3.817257511887e-02 
  2.384095820393e-04 
  3.621891097079e-02 
  3.799131569613e-02 
  3.929061341698e-02 
  4.027452570621e-02 
  4.101622906990e-02 
  4.157819369429e-02 
  3.805672494310e-02 
  3.942066629112e-02 
  4.040762026945e-02 
  4.114388737841e-02 
  4.168068324151e-02 
  4.002611896585e-02 
  4.095126021474e-02 
  4.159931676609e-02 
  4.206864233867e-02 
  4.206384976299e-02 
  4.253404913119e-02 
  4.282969028481e-02 
  4.409957349908e-02 
  4.411693286575e-02 
  4.606658789155e-02 
  4.157396156722e-02 
  4.177166091338e-02 
  4.220221211338e-02 
  4.277610869456e-02 
  4.346477956474e-02 
  4.424767922679e-02 
  4.218954139489e-02 
  4.220015355436e-02 
  4.242006141858e-02 
  4.278709566018e-02 
  4.326588743260e-02 
  4.250080544478e-02 
  4.234838163668e-02 
  4.238651613075e-02 
  4.255804093432e-02 
  4.254450617934e-02 
  4.225138080999e-02 
  4.211508001078e-02 
  4.236262319864e-02 
  4.193246651528e-02 
  4.197487745133e-02 
  1.511353514886e-02 
  1.854402878173e-02 
  2.152036319736e-02 
  2.409526506886e-02 
  2.633668558546e-02 
  2.831423461568e-02 
  1.647850092069e-02 
  1.978832562930e-02 
  2.263386552508e-02 
  2.507830301207e-02 
  2.718441543558e-02 
  1.821329419268e-02 
  2.140842393776e-02 
  2.406995186389e-02 
  2.632833185159e-02 
  2.035976797873e-02 
  2.337166211790e-02 
  2.579860508184e-02 
  2.291142008918e-02 
  2.564567363269e-02 
  2.579759216727e-02 
  2.831161565322e-02 
  3.101508963725e-02 
  3.326758728499e-02 
  3.516547774931e-02 
  3.679539016025e-02 
  3.822208215139e-02 
  2.936651928700e-02 
  3.186358063979e-02 
  3.392736735007e-02 
  3.567062139315e-02 
  3.716458097100e-02 
  3.075566927384e-02 
  3.294939600131e-02 
  3.476904833776e-02 
  3.631569772116e-02 
  3.241426826639e-02 
  3.423886859250e-02 
  3.576544767015e-02 
  3.426059179455e-02 
  3.567980954560e-02 
  3.622038557904e-02 
  3.621720822493e-02 
  3.503555024734e-02 
  3.353319586502e-02 
  3.163553534380e-02 
  2.914342124403e-02 
  2.579826275824e-02 
  3.425981279962e-02 
  3.273607786115e-02 
  3.087802488134e-02 
  2.856861992613e-02 
  2.564569958575e-02 
  3.241420412478e-02 
  3.060545443779e-02 
  2.843261646768e-02 
  2.579846694516e-02 
  3.075536945857e-02 
  2.872963680752e-02 
  2.632808873522e-02 
  2.936585005364e-02 
  2.718458721383e-02 
  2.831388910436e-02 
  2.831076123092e-02 
  2.945658188467e-02 
  3.110468882652e-02 
  3.299028388033e-02 
  3.494990491975e-02 
  3.689108992240e-02 
  3.101536569168e-02 
  3.199311194713e-02 
  3.338705978332e-02 
  3.501037637026e-02 
  3.672945254070e-02 
  3.326767721055e-02 
  3.413498046092e-02 
  3.536373639663e-02 
  3.680483035022e-02 
  3.516527087618e-02 
  3.597611389146e-02 
  3.709746345824e-02 
  3.679555294398e-02 
  3.758061534109e-02 
  3.822080882377e-02 
  4.534490822973e-02 
  4.571266893579e-02 
  4.600324212589e-02 
  4.620135850323e-02 
  4.626335221048e-02 
  4.606738559396e-02 
  4.464260797908e-02 
  4.478318057323e-02 
  4.477886241904e-02 
  4.458221784793e-02 
  4.411680218981e-02 
  4.387923680392e-02 
  4.377052327345e-02 
  4.344519628893e-02 
  4.282990834039e-02 
  4.308877141858e-02 
  4.272077874505e-02 
  4.206846488168e-02 
  4.230630635346e-02 
  4.168078084637e-02 
  4.157759233586e-02 
  3.622162340555e-02 
  3.567949555915e-02 
  3.576574158152e-02 
  3.631558024452e-02 
  3.716470836383e-02 
  3.822162033731e-02 
  3.799093427013e-02 
  3.748066021461e-02 
  3.751729055479e-02 
  3.794812305178e-02 
  3.866453974533e-02 
  3.929097642623e-02 
  3.886884668131e-02 
  3.889429332926e-02 
  3.926424449063e-02 
  4.027438356640e-02 
  3.994032276017e-02 
  3.998202867820e-02 
  4.101646789678e-02 
  4.076655653992e-02 
  4.157625961390e-02 
  4.534549412581e-02 
  4.464233151193e-02 
  4.387895999102e-02 
  4.308823417583e-02 
  4.230595050872e-02 
  4.157528416382e-02 
  4.440537684360e-02 
  4.385430922720e-02 
  4.328409528697e-02 
  4.271915990642e-02 
  4.218937791287e-02 
  4.363806180922e-02 
  4.324137928848e-02 
  4.285577442500e-02 
  4.250095347163e-02 
  4.299932701800e-02 
  4.275563224724e-02 
  4.254448695170e-02 
  4.245703420864e-02 
  4.236302301735e-02 
  4.197459696551e-02 
  2.831260835503e-02 
  2.633715016542e-02 
  2.409506942159e-02 
  2.152003660100e-02 
  1.854407029385e-02 
  1.511447058973e-02 
  2.698762822896e-02 
  2.484075239318e-02 
  2.239093702074e-02 
  1.959312591369e-02 
  1.641323169641e-02 
  2.598773524547e-02 
  2.372248444776e-02 
  2.115492000667e-02 
  1.824744185983e-02 
  2.535115434796e-02 
  2.304731496602e-02 
  2.046094799926e-02 
  2.510414560567e-02 
  2.284408145017e-02 
  2.523771572023e-02 
  4.870471967736e-02 
  4.736139165820e-02 
  4.615329077391e-02 
  4.503166188110e-02 
  4.395391595244e-02 
  4.289299416419e-02 
  4.770245671878e-02 
  4.650620843936e-02 
  4.537851361832e-02 
  4.428891355009e-02 
  4.321191596108e-02 
  4.677201683169e-02 
  4.567573726531e-02 
  4.461032433716e-02 
  4.355506513971e-02 
  4.594032418051e-02 
  4.492604355538e-02 
  4.390262720795e-02 
  4.522077427657e-02 
  4.421442666950e-02 
  4.434606247819e-02 
  4.519455619647e-02 
  3.997890496014e-02 
  3.991571544259e-02 
  3.981880192095e-02 
  4.028704684958e-02 
  4.158508332720e-02 
  4.072786288668e-02 
  3.986150531109e-02 
  3.998342984369e-02 
  4.001092777195e-02 
  4.048868105753e-02 
  3.984300150323e-02 
  4.013952969196e-02 
  4.002794387702e-02 
  4.045943337030e-02 
  3.967584908307e-02 
  3.978996932582e-02 
  4.176535163219e-02 
  4.045709656195e-02 
  4.194643616156e-02 
  4.169710326654e-02 
  5.112123274381e-02 
  5.028394974294e-02 
  4.958157374850e-02 
  4.900906942536e-02 
  4.853945980235e-02 
  4.792466602587e-02 
  5.153884790551e-02 
  5.063282372657e-02 
  4.988025213951e-02 
  4.927931414692e-02 
  4.877974427460e-02 
  5.185767258416e-02 
  5.089215850762e-02 
  5.010553629408e-02 
  4.948285451419e-02 
  5.206524045537e-02 
  5.106007941615e-02 
  5.025455178737e-02 
  5.216109382905e-02 
  5.113635190426e-02 
  5.214490368520e-02 
  5.112063174108e-02 
  5.083178893458e-02 
  5.044090752074e-02 
  4.994935880530e-02 
  4.936434648589e-02 
  4.870372554273e-02 
  4.948583585035e-02 
  4.914376096650e-02 
  4.872842317395e-02 
  4.824630736138e-02 
  4.770250538582e-02 
  4.808249756036e-02 
  4.769224516287e-02 
  4.725387906400e-02 
  4.677181737743e-02 
  4.684212831567e-02 
  4.641144727412e-02 
  4.594037395060e-02 
  4.567646377837e-02 
  4.522049498646e-02 
  4.434701558493e-02 
  4.534441356640e-02 
  4.643337443580e-02 
  4.780390165965e-02 
  4.958042900727e-02 
  5.190461399788e-02 
  5.492165008019e-02 
  4.571245212153e-02 
  4.691307667834e-02 
  4.849658446519e-02 
  5.062174190540e-02 
  5.343299431252e-02 
  4.600288799086e-02 
  4.736019689165e-02 
  4.922578258805e-02 
  5.176637266121e-02 
  4.620114942886e-02 
  4.775862101506e-02 
  4.995074741480e-02 
  4.626341927186e-02 
  4.803254117280e-02 
  4.606607056070e-02 
  5.492187487588e-02 
  5.190467640134e-02 
  4.958052457616e-02 
  4.780396202892e-02 
  4.643344968171e-02 
  4.534430846628e-02 
  5.336861658432e-02 
  5.089619884095e-02 
  4.894187543042e-02 
  4.738776258082e-02 
  4.612278673980e-02 
  5.198024820345e-02 
  4.993713814029e-02 
  4.826314961392e-02 
  4.687157097435e-02 
  5.075980323731e-02 
  4.903342590947e-02 
  4.756219481700e-02 
  4.967644706969e-02 
  4.817854043831e-02 
  4.870239764774e-02 
  6.080018052443e-02 
  6.008044972347e-02 
  5.911524542103e-02 
  5.791543493146e-02 
  5.650288587021e-02 
  5.492415230216e-02 
  5.732051414579e-02 
  5.656678930286e-02 
  5.563884127564e-02 
  5.456183943262e-02 
  5.336839135058e-02 
  5.447051698407e-02 
  5.374123566171e-02 
  5.290457909559e-02 
  5.198057228811e-02 
  5.216754669581e-02 
  5.149670094048e-02 
  5.075952386779e-02 
  5.028611372590e-02 
  4.967639912704e-02 
  4.870114274228e-02 
  5.390908822890e-02 
  5.337881148758e-02 
  5.165516817287e-02 