# vtk DataFile Version 2
NuDG++ 2D simulation
ASCII
DATASET UNSTRUCTURED_GRID

POINTS 7854 double
 -1.656250060000e-01  -2.000000030000e-01  0.0
 -1.725000054000e-01  -1.908888817000e-01  0.0
 -1.793750048000e-01  -1.817777604000e-01  0.0
 -1.862500042000e-01  -1.726666391000e-01  0.0
 -1.931250036000e-01  -1.635555178000e-01  0.0
 -2.000000030000e-01  -1.544443965000e-01  0.0
 -1.725000054000e-01  -2.000000030000e-01  0.0
 -1.793750048000e-01  -1.908888817000e-01  0.0
 -1.862500042000e-01  -1.817777604000e-01  0.0
 -1.931250036000e-01  -1.726666391000e-01  0.0
 -2.000000030000e-01  -1.635555178000e-01  0.0
 -1.793750048000e-01  -2.000000030000e-01  0.0
 -1.862500042000e-01  -1.908888817000e-01  0.0
 -1.931250036000e-01  -1.817777604000e-01  0.0
 -2.000000030000e-01  -1.726666391000e-01  0.0
 -1.862500042000e-01  -2.000000030000e-01  0.0
 -1.931250036000e-01  -1.908888817000e-01  0.0
 -2.000000030000e-01  -1.817777604000e-01  0.0
 -1.931250036000e-01  -2.000000030000e-01  0.0
 -2.000000030000e-01  -1.908888817000e-01  0.0
 -2.000000030000e-01  -2.000000030000e-01  0.0
 -6.428571790000e-02  -1.700000018000e-01  0.0
 -7.080357372400e-02  -1.760000020400e-01  0.0
 -7.732142954800e-02  -1.820000022800e-01  0.0
 -8.383928537200e-02  -1.880000025200e-01  0.0
 -9.035714119600e-02  -1.940000027600e-01  0.0
 -9.687499702000e-02  -2.000000030000e-01  0.0
 -6.392857432000e-02  -1.760000020400e-01  0.0
 -7.044643014400e-02  -1.820000022800e-01  0.0
 -7.696428596800e-02  -1.880000025200e-01  0.0
 -8.348214179200e-02  -1.940000027600e-01  0.0
 -8.999999761600e-02  -2.000000030000e-01  0.0
 -6.357143074000e-02  -1.820000022800e-01  0.0
 -7.008928656400e-02  -1.880000025200e-01  0.0
 -7.660714238800e-02  -1.940000027600e-01  0.0
 -8.312499821200e-02  -2.000000030000e-01  0.0
 -6.321428716000e-02  -1.880000025200e-01  0.0
 -6.973214298400e-02  -1.940000027600e-01  0.0
 -7.624999880800e-02  -2.000000030000e-01  0.0
 -6.285714358000e-02  -1.940000027600e-01  0.0
 -6.937499940400e-02  -2.000000030000e-01  0.0
 -6.250000000000e-02  -2.000000030000e-01  0.0
 -2.000000030000e-01  -1.544443965000e-01  0.0
 -1.900000036000e-01  -1.478412374800e-01  0.0
 -1.800000042000e-01  -1.412380784600e-01  0.0
 -1.700000048000e-01  -1.346349194400e-01  0.0
 -1.600000054000e-01  -1.280317604200e-01  0.0
 -1.500000060000e-01  -1.214286014000e-01  0.0
 -2.000000030000e-01  -1.453332975600e-01  0.0
 -1.900000036000e-01  -1.387301385400e-01  0.0
 -1.800000042000e-01  -1.321269795200e-01  0.0
 -1.700000048000e-01  -1.255238205000e-01  0.0
 -1.600000054000e-01  -1.189206614800e-01  0.0
 -2.000000030000e-01  -1.362221986200e-01  0.0
 -1.900000036000e-01  -1.296190396000e-01  0.0
 -1.800000042000e-01  -1.230158805800e-01  0.0
 -1.700000048000e-01  -1.164127215600e-01  0.0
 -2.000000030000e-01  -1.271110996800e-01  0.0
 -1.900000036000e-01  -1.205079406600e-01  0.0
 -1.800000042000e-01  -1.139047816400e-01  0.0
 -2.000000030000e-01  -1.180000007400e-01  0.0
 -1.900000036000e-01  -1.113968417200e-01  0.0
 -2.000000030000e-01  -1.088889018000e-01  0.0
 -1.500000060000e-01  -1.214286014000e-01  0.0
 -1.600000054000e-01  -1.280317604200e-01  0.0
 -1.700000048000e-01  -1.346349194400e-01  0.0
 -1.800000042000e-01  -1.412380784600e-01  0.0
 -1.900000036000e-01  -1.478412374800e-01  0.0
 -2.000000030000e-01  -1.544443965000e-01  0.0
 -1.500000060000e-01  -1.311428814800e-01  0.0
 -1.600000054000e-01  -1.377460405000e-01  0.0
 -1.700000048000e-01  -1.443491995200e-01  0.0
 -1.800000042000e-01  -1.509523585400e-01  0.0
 -1.900000036000e-01  -1.575555175600e-01  0.0
 -1.500000060000e-01  -1.408571615600e-01  0.0
 -1.600000054000e-01  -1.474603205800e-01  0.0
 -1.700000048000e-01  -1.540634796000e-01  0.0
 -1.800000042000e-01  -1.606666386200e-01  0.0
 -1.500000060000e-01  -1.505714416400e-01  0.0
 -1.600000054000e-01  -1.571746006600e-01  0.0
 -1.700000048000e-01  -1.637777596800e-01  0.0
 -1.500000060000e-01  -1.602857217200e-01  0.0
 -1.600000054000e-01  -1.668888807400e-01  0.0
 -1.500000060000e-01  -1.700000018000e-01  0.0
 -1.500000060000e-01  -7.285714149000e-02  0.0
 -1.600000054000e-01  -8.006349355200e-02  0.0
 -1.700000048000e-01  -8.726984561400e-02  0.0
 -1.800000042000e-01  -9.447619767600e-02  0.0
 -1.900000036000e-01  -1.016825497380e-01  0.0
 -2.000000030000e-01  -1.088889018000e-01  0.0
 -1.500000060000e-01  -8.257143347200e-02  0.0
 -1.600000054000e-01  -8.977778553400e-02  0.0
 -1.700000048000e-01  -9.698413759600e-02  0.0
 -1.800000042000e-01  -1.041904896580e-01  0.0
 -1.900000036000e-01  -1.113968417200e-01  0.0
 -1.500000060000e-01  -9.228572545400e-02  0.0
 -1.600000054000e-01  -9.949207751600e-02  0.0
 -1.700000048000e-01  -1.066984295780e-01  0.0
 -1.800000042000e-01  -1.139047816400e-01  0.0
 -1.500000060000e-01  -1.020000174360e-01  0.0
 -1.600000054000e-01  -1.092063694980e-01  0.0
 -1.700000048000e-01  -1.164127215600e-01  0.0
 -1.500000060000e-01  -1.117143094180e-01  0.0
 -1.600000054000e-01  -1.189206614800e-01  0.0
 -1.500000060000e-01  -1.214286014000e-01  0.0
  1.832975030000e+00  -4.625000060000e-02  0.0
  1.841380024000e+00  -7.700000108000e-02  0.0
  1.849785018000e+00  -1.077500015600e-01  0.0
  1.858190012000e+00  -1.385000020400e-01  0.0
  1.866595006000e+00  -1.692500025200e-01  0.0
  1.875000000000e+00  -2.000000030000e-01  0.0
  1.866380024000e+00  -5.649999976400e-02  0.0
  1.874785018000e+00  -8.725000024400e-02  0.0
  1.883190012000e+00  -1.180000007240e-01  0.0
  1.891595006000e+00  -1.487500012040e-01  0.0
  1.900000000000e+00  -1.795000016840e-01  0.0
  1.899785018000e+00  -6.674999892800e-02  0.0
  1.908190012000e+00  -9.749999940800e-02  0.0
  1.916595006000e+00  -1.282499998880e-01  0.0
  1.925000000000e+00  -1.590000003680e-01  0.0
  1.933190012000e+00  -7.699999809200e-02  0.0
  1.941595006000e+00  -1.077499985720e-01  0.0
  1.950000000000e+00  -1.384999990520e-01  0.0
  1.966595006000e+00  -8.724999725600e-02  0.0
  1.975000000000e+00  -1.179999977360e-01  0.0
  2.000000000000e+00  -9.749999642000e-02  0.0
 -1.500000060000e-01  -1.700000018000e-01  0.0
 -1.444000050800e-01  -1.630000025200e-01  0.0
 -1.388000041600e-01  -1.560000032400e-01  0.0
 -1.332000032400e-01  -1.490000039600e-01  0.0
 -1.276000023200e-01  -1.420000046800e-01  0.0
 -1.220000014000e-01  -1.350000054000e-01  0.0
 -1.500000060000e-01  -1.602857217200e-01  0.0
 -1.444000050800e-01  -1.532857224400e-01  0.0
 -1.388000041600e-01  -1.462857231600e-01  0.0
 -1.332000032400e-01  -1.392857238800e-01  0.0
 -1.276000023200e-01  -1.322857246000e-01  0.0
 -1.500000060000e-01  -1.505714416400e-01  0.0
 -1.444000050800e-01  -1.435714423600e-01  0.0
 -1.388000041600e-01  -1.365714430800e-01  0.0
 -1.332000032400e-01  -1.295714438000e-01  0.0
 -1.500000060000e-01  -1.408571615600e-01  0.0
 -1.444000050800e-01  -1.338571622800e-01  0.0
 -1.388000041600e-01  -1.268571630000e-01  0.0
 -1.500000060000e-01  -1.311428814800e-01  0.0
 -1.444000050800e-01  -1.241428822000e-01  0.0
 -1.500000060000e-01  -1.214286014000e-01  0.0
  2.849999964000e-01  -2.333333530000e-02  0.0
  2.844999968800e-01  -4.666666836000e-02  0.0
  2.839999973600e-01  -7.000000142000e-02  0.0
  2.834999978400e-01  -9.333333448000e-02  0.0
  2.829999983200e-01  -1.166666675400e-01  0.0
  2.824999988000e-01  -1.400000006000e-01  0.0
  2.979999959200e-01  -3.266666830000e-02  0.0
  2.974999964000e-01  -5.600000136000e-02  0.0
  2.969999968800e-01  -7.933333442000e-02  0.0
  2.964999973600e-01  -1.026666674800e-01  0.0
  2.959999978400e-01  -1.260000005400e-01  0.0
  3.109999954400e-01  -4.200000130000e-02  0.0
  3.104999959200e-01  -6.533333436000e-02  0.0
  3.099999964000e-01  -8.866666742000e-02  0.0
  3.094999968800e-01  -1.120000004800e-01  0.0
  3.239999949600e-01  -5.133333430000e-02  0.0
  3.234999954400e-01  -7.466666736000e-02  0.0
  3.229999959200e-01  -9.800000042000e-02  0.0
  3.369999944800e-01  -6.066666730000e-02  0.0
  3.364999949600e-01  -8.400000036000e-02  0.0
  3.499999940000e-01  -7.000000030000e-02  0.0
 -1.071429029000e-01  -1.700000018000e-01  0.0
 -9.857146590000e-02  -1.700000018000e-01  0.0
 -9.000002890000e-02  -1.700000018000e-01  0.0
 -8.142859190000e-02  -1.700000018000e-01  0.0
 -7.285715490000e-02  -1.700000018000e-01  0.0
 -6.428571790000e-02  -1.700000018000e-01  0.0
 -1.037143230360e-01  -1.630000025200e-01  0.0
 -9.514288603600e-02  -1.630000025200e-01  0.0
 -8.657144903600e-02  -1.630000025200e-01  0.0
 -7.800001203600e-02  -1.630000025200e-01  0.0
 -6.942857503600e-02  -1.630000025200e-01  0.0
 -1.002857431720e-01  -1.560000032400e-01  0.0
 -9.171430617200e-02  -1.560000032400e-01  0.0
 -8.314286917200e-02  -1.560000032400e-01  0.0
 -7.457143217200e-02  -1.560000032400e-01  0.0
 -9.685716330800e-02  -1.490000039600e-01  0.0
 -8.828572630800e-02  -1.490000039600e-01  0.0
 -7.971428930800e-02  -1.490000039600e-01  0.0
 -9.342858344400e-02  -1.420000046800e-01  0.0
 -8.485714644400e-02  -1.420000046800e-01  0.0
 -9.000000358000e-02  -1.350000054000e-01  0.0
 -1.312499940000e-01  -2.000000030000e-01  0.0
 -1.264285757800e-01  -1.940000027600e-01  0.0
 -1.216071575600e-01  -1.880000025200e-01  0.0
 -1.167857393400e-01  -1.820000022800e-01  0.0
 -1.119643211200e-01  -1.760000020400e-01  0.0
 -1.071429029000e-01  -1.700000018000e-01  0.0
 -1.349999964000e-01  -1.940000027600e-01  0.0
 -1.301785781800e-01  -1.880000025200e-01  0.0
 -1.253571599600e-01  -1.820000022800e-01  0.0
 -1.205357417400e-01  -1.760000020400e-01  0.0
 -1.157143235200e-01  -1.700000018000e-01  0.0
 -1.387499988000e-01  -1.880000025200e-01  0.0
 -1.339285805800e-01  -1.820000022800e-01  0.0
 -1.291071623600e-01  -1.760000020400e-01  0.0
 -1.242857441400e-01  -1.700000018000e-01  0.0
 -1.425000012000e-01  -1.820000022800e-01  0.0
 -1.376785829800e-01  -1.760000020400e-01  0.0
 -1.328571647600e-01  -1.700000018000e-01  0.0
 -1.462500036000e-01  -1.760000020400e-01  0.0
 -1.414285853800e-01  -1.700000018000e-01  0.0
 -1.500000060000e-01  -1.700000018000e-01  0.0
[...]
POINT_DATA 7854
SCALARS field1 double 1
LOOKUP_TABLE default
  1.282571920361e-05 
  6.036930988668e-03 
  5.998411028886e-03 
  5.865140934464e-03 
  6.412794851890e-03 
  7.427192621335e-03 
 -2.769985060142e-06 
  5.091825532637e-03 
  4.959286439673e-03 
  5.065336834266e-03 
  6.076672635232e-03 
 -1.339717163167e-06 
  3.885515376562e-03 
  3.871259361759e-03 
  4.675465205263e-03 
  1.912521773647e-05 
  2.467859450100e-03 
  3.195158695645e-03 
 -4.152942407963e-07 
  1.621881500233e-03 
  5.798564982721e-06 
  1.387766387490e-02 
  1.361743977749e-02 
  1.327614239830e-02 
  1.251093931532e-02 
  9.565489746325e-03 
 -1.242392788344e-06 
  1.384712329520e-02 
  1.351325750813e-02 
  1.275662396174e-02 
  9.771470743427e-03 
 -6.248492532911e-07 
  1.373543861305e-02 
  1.298388633703e-02 
  9.964599629128e-03 
 -6.042024980715e-07 
  1.319643379996e-02 
  1.014533437849e-02 
 -6.741367946067e-07 
  1.031154186855e-02 
 -5.458784089097e-07 
 -7.464208688646e-07 
  7.411685889721e-03 
  8.644144219399e-03 
  9.796993685718e-03 
  1.071293395971e-02 
  1.146768193740e-02 
  1.208448365788e-02 
  8.666853160358e-03 
  9.710490461773e-03 
  1.069032513528e-02 
  1.145021790444e-02 
  1.209021173212e-02 
  9.857385307945e-03 
  1.075106088036e-02 
  1.151423192765e-02 
  1.216103395193e-02 
  1.096987446092e-02 
  1.170577365917e-02 
  1.231988905360e-02 
  1.201050007813e-02 
  1.261977364412e-02 
  1.296808395807e-02 
  1.208715942084e-02 
  1.146832221925e-02 
  1.071598115874e-02 
  9.794870767625e-03 
  8.646913085727e-03 
  7.411426377523e-03 
  1.153492455870e-02 
  1.085526619285e-02 
  9.966969125524e-03 
  8.819367406362e-03 
  7.408266611162e-03 
  1.105009388935e-02 
  1.024237982162e-02 
  9.186762378980e-03 
  7.875007849411e-03 
  1.057980774981e-02 
  9.632328524906e-03 
  8.439163782568e-03 
  1.012527705946e-02 
  9.068995264136e-03 
  9.738152415357e-03 
  1.410656288648e-02 
  1.408921173913e-02 
  1.402783674600e-02 
  1.384634905370e-02 
  1.352811215327e-02 
  1.297022182531e-02 
  1.373847028148e-02 
  1.367575600864e-02 
  1.347097929210e-02 
  1.312154013250e-02 
  1.261922303221e-02 
  1.340935644311e-02 
  1.320464737992e-02 
  1.283121643091e-02 
  1.232205067961e-02 
  1.306106315333e-02 
  1.267996841021e-02 
  1.215827207941e-02 
  1.263903999003e-02 
  1.208934283904e-02 
  1.208546008643e-02 
  1.428953497119e-02 
  1.208230711362e-02 
  1.256369265118e-02 
  1.184961283869e-02 
  1.345105425046e-02 
  9.287818716399e-04 
  1.267484357429e-02 
  1.271168407551e-02 
  1.237077805388e-02 
  1.206194050160e-02 
  1.239814979923e-02 
  1.270703910392e-02 
  1.265679104634e-02 
  1.226744812413e-02 
  1.223213576934e-02 
  1.262481064427e-02 
  1.250977725593e-02 
  1.229149597255e-02 
  1.285367555885e-02 
  1.199422429868e-02 
  1.380572496436e-02 
  9.735421866713e-03 
  1.036592179324e-02 
  1.094884808800e-02 
  1.145786984771e-02 
  1.192245433821e-02 
  1.237664181569e-02 
  1.012624991725e-02 
  1.075585964394e-02 
  1.130623346216e-02 
  1.180761753033e-02 
  1.224481911763e-02 
  1.058108265459e-02 
  1.117191579149e-02 
  1.169863698016e-02 
  1.216936760694e-02 
  1.105223511416e-02 
  1.161672104927e-02 
  1.210225819549e-02 
  1.153874855407e-02 
  1.207976586349e-02 
  1.208816806982e-02 
  1.288744752871e-02 
  1.259049958831e-02 
  1.269209798667e-02 
  1.281275790296e-02 
  1.271345211731e-02 
  1.375089754634e-02 
  1.269107062249e-02 
  1.263783802819e-02 
  1.273610659212e-02 
  1.275132355068e-02 
  1.283620331496e-02 
  1.268964775048e-02 
  1.269334789742e-02 
  1.274345566608e-02 
  1.273919874890e-02 
  1.270075594123e-02 
  1.272374127817e-02 
  1.268760952874e-02 
  1.267620279980e-02 
  1.278702713325e-02 
  1.248675046955e-02 
  1.223088117972e-02 
  1.260499836330e-02 
  1.295960079069e-02 
  1.329003267817e-02 
  1.359638342359e-02 
  1.388042727912e-02 
  1.247602655593e-02 
  1.283302570472e-02 
  1.316680900074e-02 
  1.348783581424e-02 
  1.378771440413e-02 
  1.272268436942e-02 
  1.306012068480e-02 
  1.338192961945e-02 
  1.369357423483e-02 
  1.296731262348e-02 
  1.328916641993e-02 
  1.360153250608e-02 
  1.320852535219e-02 
  1.352013968084e-02 
  1.344639409165e-02 
 -5.789999031549e-06 
  8.198707154225e-03 
  1.079814006365e-02 
  1.153891891222e-02 
  1.191359125529e-02 
  1.223473972938e-02 
  7.775189503368e-03 
  1.029265345648e-02 
  1.106248179908e-02 
  1.147388065256e-02 
  1.181276987723e-02 
  9.720578614828e-03 
  1.052489021609e-02 
  1.098422041407e-02 
  1.136552388412e-02 
  9.908858712228e-03 
  1.043812873010e-02 
  1.087362970611e-02 
  9.819596887055e-03 
  1.033086177998e-02 
  9.729420379273e-03 
  1.236925480181e-02 
  1.256837538265e-02 
  1.278409942787e-02 
  1.300002231938e-02 
  1.322206820859e-02 
  1.344526354389e-02 
  1.258475595767e-02 
  1.277524937293e-02 
  1.297288020634e-02 
  1.317536822883e-02 
  1.338427833481e-02 
  1.280132232061e-02 
  1.296718773689e-02 
  1.314519311131e-02 
  1.333426497980e-02 
  1.299679731264e-02 
  1.313917050700e-02 
  1.329697242474e-02 
  1.316036470557e-02 
  1.328412050631e-02 
  1.329333018317e-02 
  1.344559797998e-02 
  1.322201475286e-02 
  1.300023083549e-02 
  1.278387057302e-02 
  1.256853706948e-02 
  1.236918310583e-02 
  1.320811504210e-02 
  1.297700238477e-02 
  1.274148452615e-02 
  1.250513140499e-02 
  1.225746808339e-02 
  1.296675637638e-02 
  1.272269257871e-02 
  1.246967799209e-02 
  1.220800391640e-02 
  1.272232592143e-02 
  1.246173963735e-02 
  1.218737769594e-02 
  1.247546273575e-02 
  1.219273787638e-02 
  1.223227827828e-02 
  1.423462884798e-02 
  1.396990775585e-02 
  1.375686530909e-02 
  1.358156930440e-02 
  1.343099020195e-02 
  1.329315635685e-02 
  1.415320807466e-02 
  1.389354439200e-02 
  1.366746429055e-02 
  1.346677153145e-02 
  1.328402239674e-02 
  1.402310724423e-02 
  1.376074817548e-02 
  1.352182225039e-02 
  1.329723595802e-02 
  1.385436984642e-02 
  1.358869409388e-02 
  1.333443083281e-02 
  1.366014197123e-02 
  1.338430634994e-02 
  1.344624100456e-02 
  1.237171338627e-02 
  1.258517310454e-02 
  1.280153055397e-02 
  1.299736030134e-02 
  1.316023823158e-02 
  1.329324857531e-02 
  1.224628747466e-02 
  1.250793972941e-02 
  1.273900766620e-02 
  1.294536019403e-02 
  1.312498838489e-02 
  1.216815556699e-02 
  1.244657063166e-02 
  1.270541027723e-02 
  1.292777071437e-02 
  1.210337008413e-02 
  1.241835244484e-02 
  1.270774147937e-02 
  1.207962850081e-02 
  1.243289588428e-02 
  1.209013735716e-02 
  1.423439443998e-02 
  1.415337326130e-02 
  1.402306080837e-02 
  1.385437020284e-02 
  1.365984618364e-02 
  1.344737214273e-02 
  1.444057087928e-02 
  1.431531872207e-02 
  1.415116445095e-02 
  1.396306093948e-02 
  1.375906184130e-02 
  1.464090851048e-02 
  1.447047703069e-02 
  1.427707853645e-02 
  1.407181966741e-02 
  1.482643143109e-02 
  1.461494051220e-02 
  1.439511027118e-02 
  1.499170991352e-02 
  1.474346329936e-02 
  1.513038915728e-02 
  1.223353328055e-02 
  1.219241544542e-02 
  1.218747667724e-02 
  1.220827774998e-02 
  1.225653407910e-02 
  1.237266978693e-02 
  1.181284167960e-02 
  1.178866594409e-02 
  1.179643578158e-02 
  1.184115814110e-02 
  1.192346717237e-02 
  1.136503164522e-02 
  1.135124218930e-02 
  1.138519521393e-02 
  1.145848605216e-02 
  1.087391746927e-02 
  1.088246165892e-02 
  1.094886155753e-02 
  1.033016357914e-02 
  1.036648517027e-02 
  9.732368599705e-03 
 -5.572268036919e-07 
 -6.459437285482e-07 
 -6.058583778703e-07 
 -7.376618411581e-07 
 -6.888743194711e-07 
 -1.562577687880e-06 
  1.122263312749e-02 
  1.120790818809e-02 
  1.114746729622e-02 
  1.104729661570e-02 
  1.091721090626e-02 
  1.437488067077e-02 
  1.434164781065e-02 
  1.425257666427e-02 
  1.411384669898e-02 
  1.497056652597e-02 
  1.492026853794e-02 
  1.481537422621e-02 
  1.509690241723e-02 
  1.502658823777e-02 
  1.513805507951e-02 
  1.410368757588e-02 
  1.374054578322e-02 
  1.340986934356e-02 
  1.306001905406e-02 
  1.263615497615e-02 
  1.208918225773e-02 
  1.376774182919e-02 
  1.349599336801e-02 
  1.319332140840e-02 
  1.284467694792e-02 
  1.243334563736e-02 
  1.354415331376e-02 
  1.331058059077e-02 
  1.303137954291e-02 
  1.270770710605e-02 
  1.340712156724e-02 
  1.318539002356e-02 
  1.292710023302e-02 
  1.331711942890e-02 
  1.312523468168e-02 
  1.329263632353e-02 
  1.668571594731e-02 
  1.616977575416e-02 
  1.552616365060e-02 
  1.497114471753e-02 
  1.448738095829e-02 
  1.410194299795e-02 
  1.670980025048e-02 
  1.599162931930e-02 
  1.535079883763e-02 
  1.483315081075e-02 
  1.441659240367e-02 
  1.638050054657e-02 
  1.568924303119e-02 
  1.508650060742e-02 
  1.458766980447e-02 
  1.595767944967e-02 
  1.529338924267e-02 
  1.468894541584e-02 
  1.544787375814e-02 
  1.479322986180e-02 
  1.494718471764e-02 
  1.667948148635e-02 
  1.608734471479e-02 
  1.541934998924e-02 
  1.467530070733e-02 
  1.385848869939e-02 
  1.297002945994e-02 
  1.617065729334e-02 
  1.561769534480e-02 
  1.498772818440e-02 
  1.429329332423e-02 
  1.352938539958e-02 
  1.552283460829e-02 
  1.501097075772e-02 
  1.446373618763e-02 
  1.384759994532e-02 
  1.497515051037e-02 
  1.452603242274e-02 
  1.402690848874e-02 
  1.448618180785e-02 
  1.408750760225e-02 
  1.410915614768e-02 
  1.668019104287e-02 
  1.671219526132e-02 
  1.638047784875e-02 
  1.595801992454e-02 
  1.544602659066e-02 
  1.495303208389e-02 
  1.719529696168e-02 
  1.713153798214e-02 
  1.667663689702e-02 
  1.617641020422e-02 
  1.559679371233e-02 
  1.764074218374e-02 
  1.747173863836e-02 
  1.691636978924e-02 
  1.634949354655e-02 
  1.801367804965e-02 
  1.775721232382e-02 
  1.712013794876e-02 
  1.831094872634e-02 
  1.795838261072e-02 
  1.853467905593e-02 
  1.494137168106e-02 
  1.479313073831e-02 
  1.468801005226e-02 
  1.458561098173e-02 
  1.441216256398e-02 
  1.410157212858e-02 
  1.435323400677e-02 
  1.430060717353e-02 
  1.424293525466e-02 
  1.416780900021e-02 
  1.403668424345e-02 
  1.381393059718e-02 
  1.383256096622e-02 
  1.384105259187e-02 
  1.382548936419e-02 
  1.330576462384e-02 
  1.339868022636e-02 
  1.347974787725e-02 
  1.282120899445e-02 
  1.301689019005e-02 
  1.234093900704e-02 
  1.198189067498e-02 
  1.268727014927e-02 
  1.330704643805e-02 
  1.389324761697e-02 
  1.442731213275e-02 
  1.493938493513e-02 
  1.196912865155e-02 
  1.266515594021e-02 
  1.329191429334e-02 
  1.384900571009e-02 
  1.435346930717e-02 
  1.198476096278e-02 
  1.268632170614e-02 
  1.329086621562e-02 
  1.381354444134e-02 
  1.206160612077e-02 
  1.274202685176e-02 
  1.330596760546e-02 
  1.219129358162e-02 
  1.282069300351e-02 
  1.234371734237e-02 
  1.494227731278e-02 
  1.502333328651e-02 
  1.504189706609e-02 
  1.504430036280e-02 
  1.505789987605e-02 
  1.508217498229e-02 
  1.559871769093e-02 
  1.570887815264e-02 
  1.575459642259e-02 
  1.578034842202e-02 
  1.575729073873e-02 
  1.634514320478e-02 
  1.644581259654e-02 
  1.651675064822e-02 
  1.654397679795e-02 
  1.712407737317e-02 
  1.726492297933e-02 
  1.733604742706e-02 
  1.795654806219e-02 
  1.811975323254e-02 
  1.854475505295e-02 
  1.410102052804e-02 
  1.385336095962e-02 
  1.363445060574e-02 
  1.345109171267e-02 
  1.331201859075e-02 
  1.323984213952e-02 
  1.403645775348e-02 
  1.372582531320e-02 
  1.345398300092e-02 
  1.321909850182e-02 
  1.302849088564e-02 
  1.382511729518e-02 
  1.346451803932e-02 
  1.312892285773e-02 
  1.282472425113e-02 
  1.348061521482e-02 
  1.305627191254e-02 
  1.263562908347e-02 
  1.301644298186e-02 
  1.247576920539e-02 
  1.234379316107e-02 
  1.361245605475e-02 
  1.297749444987e-02 
  1.284784366422e-02 
  1.280814538589e-02 
  1.287087474613e-02 
  1.340292540747e-02 
  1.258120762915e-02 
  1.282174122977e-02 
  1.280008325087e-02 
  1.285168318956e-02 
  1.274556310612e-02 
  1.273268936710e-02 
  1.258599104906e-02 
  1.260766943205e-02 
  1.236654823479e-02 
  1.261096432363e-02 
  1.257797374127e-02 
  1.256275822454e-02 
  1.209382046188e-02 
  1.298470760252e-02 
  5.257151827250e-04 
  1.174015643446e-02 
  1.223468529446e-02 
  1.259796845053e-02 
  1.287437471129e-02 
  1.308374740711e-02 
  1.324227208956e-02 
  1.226029069669e-02 
  1.263044757097e-02 
  1.290506616732e-02 
  1.311165522805e-02 
  1.326193653403e-02 
  1.281440889141e-02 
  1.305573436481e-02 
  1.323345347520e-02 
  1.336419879128e-02 
  1.338414804685e-02 
  1.349564914211e-02 
  1.357299194133e-02 
  1.395149567207e-02 
  1.393580385636e-02 
  1.449766027860e-02 
  1.323922052143e-02 
  1.331211719826e-02 
  1.345094555074e-02 
  1.363443447637e-02 
  1.385301546563e-02 
  1.410187387436e-02 
  1.340829575207e-02 
  1.342433195050e-02 
  1.350700676486e-02 
  1.362451731671e-02 
  1.376801636134e-02 
  1.348403100459e-02 
  1.346136877101e-02 
  1.348686193330e-02 
  1.354367552442e-02 
  1.348690976993e-02 
  1.342536925156e-02 
  1.340600302391e-02 
  1.342703981744e-02 
  1.331672700681e-02 
  1.329277019185e-02 
  5.708988451412e-03 
  6.733436407733e-03 
  7.589053081968e-03 
  8.321213153547e-03 
  8.957014602624e-03 
  9.526109368851e-03 
  6.187869825028e-03 
  7.130383098315e-03 
  7.925356195760e-03 
  8.608763501702e-03 
  9.198632436295e-03 
  6.779260713032e-03 
  7.645951299031e-03 
  8.358590765477e-03 
  8.973252369783e-03 
  7.504196239848e-03 
  8.264443977159e-03 
  8.877289704090e-03 
  8.354517234085e-03 
  8.972662152254e-03 
  9.291764911300e-03 
  9.525714338278e-03 
  1.029042549492e-02 
  1.093539363900e-02 
  1.147881945459e-02 
  1.194805229909e-02 
  1.234816572371e-02 
  9.816051834842e-03 
  1.052503836849e-02 
  1.111476035608e-02 
  1.161387499634e-02 
  1.204528006491e-02 
  1.020803118632e-02 
  1.082755750741e-02 
  1.134690781536e-02 
  1.178978944634e-02 
  1.067678479338e-02 
  1.118783146899e-02 
  1.162335606008e-02 
  1.119514054966e-02 
  1.159068071703e-02 
  1.174083743360e-02 
  1.173913333181e-02 
  1.142829527395e-02 
  1.104278241087e-02 
  1.058873156469e-02 
  1.003127007874e-02 
  9.291876427457e-03 
  1.119438155706e-02 
  1.077836698407e-02 
  1.028764003280e-02 
  9.697827813089e-03 
  8.972711071427e-03 
  1.067654884708e-02 
  1.017501945940e-02 
  9.582888759007e-03 
  8.877185177498e-03 
  1.020763323105e-02 
  9.640709056939e-03 
  8.973176004376e-03 
  9.815526800400e-03 
  9.198692441915e-03 
  9.526127791348e-03 
  9.526286358762e-03 
  9.854433737725e-03 
  1.033536743896e-02 
  1.088066680228e-02 
  1.145333193254e-02 
  1.198665906007e-02 
  1.029060943846e-02 
  1.058228591181e-02 
  1.099006254470e-02 
  1.146543698773e-02 
  1.196883923010e-02 
  1.093570003145e-02 
  1.119650917391e-02 
  1.156042435770e-02 
  1.198490160238e-02 
  1.147867524349e-02 
  1.172718931865e-02 
  1.206187046026e-02 
  1.194838914526e-02 
  1.219132354205e-02 
  1.234647250686e-02 
  1.423412043187e-02 
  1.434586793031e-02 
  1.443630507183e-02 
  1.450111145597e-02 
  1.452983365123e-02 
  1.449811068264e-02 
  1.404884519393e-02 
  1.409795798722e-02 
  1.410486266759e-02 
  1.405626648592e-02 
  1.393573740362e-02 
  1.384865066758e-02 
  1.382601025632e-02 
  1.374105400635e-02 
  1.357310857139e-02 
  1.364223792726e-02 
  1.354327491422e-02 
  1.336408027325e-02 
  1.343535360609e-02 
  1.326201721955e-02 
  1.324185294433e-02 
  1.174183534994e-02 
  1.159052212311e-02 
  1.162362984014e-02 
  1.178956589247e-02 
  1.204548811324e-02 
  1.234711589324e-02 
  1.223462031289e-02 
  1.209874651064e-02 
  1.212141121225e-02 
  1.225752721403e-02 
  1.247639061606e-02 
  1.259820678835e-02 
  1.249247888412e-02 
  1.251341514431e-02 
  1.263595256935e-02 
  1.287424705471e-02 
  1.279565489805e-02 
  1.282483909104e-02 
  1.308396685651e-02 
  1.302873750820e-02 
  1.324112631741e-02 
  1.423447484147e-02 
  1.404867528724e-02 
  1.384856690678e-02 
  1.364216668828e-02 
  1.343519098376e-02 
  1.324025755032e-02 
  1.396995603065e-02 
  1.383040683727e-02 
  1.368486004894e-02 
  1.354020879082e-02 
  1.340792572674e-02 
  1.375688880353e-02 
  1.366167319878e-02 
  1.356942050399e-02 
  1.348434643200e-02 
  1.358160145338e-02 
  1.352954017847e-02 
  1.348702115534e-02 
  1.343115676410e-02 
  1.342686460420e-02 
  1.329275756508e-02 
  9.525817744726e-03 
  8.957179530584e-03 
  8.321231776380e-03 
  7.588797018328e-03 
  6.733596775245e-03 
  5.708988800938e-03 
  9.147026088296e-03 
  8.531419579366e-03 
  7.828816969488e-03 
  7.016050022154e-03 
  6.073004807489e-03 
  8.864665990614e-03 
  8.212240674311e-03 
  7.469520687788e-03 
  6.613059105611e-03 
  8.685382955438e-03 
  8.019347394005e-03 
  7.267589185880e-03 
  8.616596747015e-03 
  7.962680396228e-03 
  8.650763888797e-03 
  1.513076025103e-02 
  1.474329819517e-02 
  1.439525405630e-02 
  1.407167872501e-02 
  1.375899671964e-02 
  1.344739751461e-02 
  1.482314435103e-02 
  1.447949585603e-02 
  1.415363465865e-02 
  1.383662377291e-02 
  1.352035377694e-02 
  1.454268284203e-02 
  1.422416362078e-02 
  1.391350473514e-02 
  1.360191182487e-02 
  1.428885328504e-02 
  1.399350026293e-02 
  1.369375003690e-02 
  1.407245478751e-02 
  1.378837190708e-02 
  1.388047678498e-02 
  1.412207936563e-02 
  1.264574199536e-02 
  1.266050612355e-02 
  1.261284305674e-02 
  1.278470004444e-02 
  1.387871311412e-02 
  1.256394474830e-02 
  1.240736605790e-02 
  1.244273032335e-02 
  1.243382122802e-02 
  1.258758501188e-02 
  1.245055845478e-02 
  1.246166520500e-02 
  1.248382211524e-02 
  1.256374805578e-02 
  1.244418268425e-02 
  1.238819107849e-02 
  1.237035177344e-02 
  1.246192461753e-02 
  1.273431581995e-02 
  1.259239594333e-02 
  1.578336462913e-02 
  1.553304428806e-02 
  1.532053335424e-02 
  1.515385904589e-02 
  1.502449415828e-02 
  1.491739017836e-02 
  1.589820526532e-02 
  1.562862818330e-02 
  1.540478967669e-02 
  1.523087083990e-02 
  1.509435706993e-02 
  1.598543227472e-02 
  1.570010862694e-02 
  1.546828435485e-02 
  1.528756581273e-02 
  1.604153979317e-02 
  1.574691020252e-02 
  1.550905288935e-02 
  1.606762144841e-02 
  1.576842676966e-02 
  1.606167819065e-02 
  1.578267181110e-02 
  1.570588785502e-02 
  1.559960762189e-02 
  1.546541219746e-02 
  1.530703563312e-02 
  1.512973113312e-02 
  1.530884982086e-02 
  1.521627315275e-02 
  1.510310341126e-02 
  1.497156310834e-02 
  1.482326364501e-02 
  1.489671993318e-02 
  1.479200050463e-02 
  1.467296778377e-02 
  1.454242506357e-02 
  1.453685797837e-02 
  1.441839116302e-02 
  1.428890125075e-02 
  1.420318799953e-02 
  1.407221885958e-02 
  1.388092387345e-02 
  1.423380980450e-02 
  1.454204818584e-02 
  1.492880992816e-02 
  1.543165343330e-02 
  1.609221076354e-02 
  1.696829118163e-02 
  1.434579253767e-02 
  1.468574225124e-02 
  1.513348609156e-02 
  1.573794176925e-02 
  1.655383080604e-02 
  1.443613734127e-02 
  1.482045288397e-02 
  1.535109734490e-02 
  1.609326395018e-02 
  1.450100386095e-02 
  1.494408520113e-02 
  1.558994692157e-02 
  1.452981265625e-02 
  1.505367620423e-02 
  1.449753448447e-02 
  1.696827682297e-02 
  1.609227463530e-02 
  1.543167435626e-02 
  1.492887060764e-02 
  1.454207493429e-02 
  1.423393399277e-02 
  1.649297336439e-02 
  1.579192145101e-02 
  1.523962878635e-02 
  1.479987083988e-02 
  1.444025990950e-02 
  1.608776107876e-02 
  1.550989218611e-02 
  1.503579506322e-02 
  1.464063207951e-02 
  1.573186069599e-02 
  1.524293946800e-02 
  1.482597058902e-02 
  1.541525243852e-02 
  1.499122692088e-02 
  1.512936160120e-02 
  1.859115372909e-02 
  1.839387249266e-02 
  1.813103175436e-02 
  1.780258659864e-02 
  1.741078645392e-02 
  1.696969984514e-02 
  1.758286363241e-02 
  1.737698911453e-02 
  1.712112131137e-02 
  1.682273117256e-02 
  1.649284279877e-02 
  1.677250274729e-02 
  1.657288249778e-02 
  1.634257383916e-02 
  1.608798481717e-02 
  1.611799401461e-02 
  1.593427772203e-02 
  1.573167863166e-02 
  1.558327152206e-02 
  1.541522419440e-02 
  1.512842482204e-02 
  1.874403332660e-02 
  1.761060628827e-02 
  1.653601563005e-02 