# vtk DataFile Version 2
NuDG++ 2D simulation
ASCII
DATASET UNSTRUCTURED_GRID

POINTS 7854 double
 -1.656250060000e-01  -2.000000030000e-01  0.0
 -1.725000054000e-01  -1.908888817000e-01  0.0
 -1.793750048000e-01  -1.817777604000e-01  0.0
 -1.862500042000e-01  -1.726666391000e-01  0.0
 -1.931250036000e-01  -1.635555178000e-01  0.0
 -2.000000030000e-01  -1.544443965000e-01  0.0
 -1.725000054000e-01  -2.000000030000e-01  0.0
 -1.793750048000e-01  -1.908888817000e-01  0.0
 -1.862500042000e-01  -1.817777604000e-01  0.0
 -1.931250036000e-01  -1.726666391000e-01  0.0
 -2.000000030000e-01  -1.635555178000e-01  0.0
 -1.793750048000e-01  -2.000000030000e-01  0.0
 -1.862500042000e-01  -1.908888817000e-01  0.0
 -1.931250036000e-01  -1.817777604000e-01  0.0
 -2.000000030000e-01  -1.726666391000e-01  0.0
 -1.862500042000e-01  -2.000000030000e-01  0.0
 -1.931250036000e-01  -1.908888817000e-01  0.0
 -2.000000030000e-01  -1.817777604000e-01  0.0
 -1.931250036000e-01  -2.000000030000e-01  0.0
 -2.000000030000e-01  -1.908888817000e-01  0.0
 -2.000000030000e-01  -2.000000030000e-01  0.0
 -6.428571790000e-02  -1.700000018000e-01  0.0
 -7.080357372400e-02  -1.760000020400e-01  0.0
 -7.732142954800e-02  -1.820000022800e-01  0.0
 -8.383928537200e-02  -1.880000025200e-01  0.0
 -9.035714119600e-02  -1.940000027600e-01  0.0
 -9.687499702000e-02  -2.000000030000e-01  0.0
 -6.392857432000e-02  -1.760000020400e-01  0.0
 -7.044643014400e-02  -1.820000022800e-01  0.0
 -7.696428596800e-02  -1.880000025200e-01  0.0
 -8.348214179200e-02  -1.940000027600e-01  0.0
 -8.999999761600e-02  -2.000000030000e-01  0.0
 -6.357143074000e-02  -1.820000022800e-01  0.0
 -7.008928656400e-02  -1.880000025200e-01  0.0
 -7.660714238800e-02  -1.940000027600e-01  0.0
 -8.312499821200e-02  -2.000000030000e-01  0.0
 -6.321428716000e-02  -1.880000025200e-01  0.0
 -6.973214298400e-02  -1.940000027600e-01  0.0
 -7.624999880800e-02  -2.000000030000e-01  0.0
 -6.285714358000e-02  -1.940000027600e-01  0.0
 -6.937499940400e-02  -2.000000030000e-01  0.0
 -6.250000000000e-02  -2.000000030000e-01  0.0
 -2.000000030000e-01  -1.544443965000e-01  0.0
 -1.900000036000e-01  -1.478412374800e-01  0.0
 -1.800000042000e-01  -1.412380784600e-01  0.0
 -1.700000048000e-01  -1.346349194400e-01  0.0
 -1.600000054000e-01  -1.280317604200e-01  0.0
 -1.500000060000e-01  -1.214286014000e-01  0.0
 -2.000000030000e-01  -1.453332975600e-01  0.0
 -1.900000036000e-01  -1.387301385400e-01  0.0
 -1.800000042000e-01  -1.321269795200e-01  0.0
 -1.700000048000e-01  -1.255238205000e-01  0.0
 -1.600000054000e-01  -1.189206614800e-01  0.0
 -2.000000030000e-01  -1.362221986200e-01  0.0
 -1.900000036000e-01  -1.296190396000e-01  0.0
 -1.800000042000e-01  -1.230158805800e-01  0.0
 -1.700000048000e-01  -1.164127215600e-01  0.0
 -2.000000030000e-01  -1.271110996800e-01  0.0
 -1.900000036000e-01  -1.205079406600e-01  0.0
 -1.800000042000e-01  -1.139047816400e-01  0.0
 -2.000000030000e-01  -1.180000007400e-01  0.0
 -1.900000036000e-01  -1.113968417200e-01  0.0
 -2.000000030000e-01  -1.088889018000e-01  0.0
 -1.500000060000e-01  -1.214286014000e-01  0.0
 -1.600000054000e-01  -1.280317604200e-01  0.0
 -1.700000048000e-01  -1.346349194400e-01  0.0
 -1.800000042000e-01  -1.412380784600e-01  0.0
 -1.900000036000e-01  -1.478412374800e-01  0.0
 -2.000000030000e-01  -1.544443965000e-01  0.0
 -1.500000060000e-01  -1.311428814800e-01  0.0
 -1.600000054000e-01  -1.377460405000e-01  0.0
 -1.700000048000e-01  -1.443491995200e-01  0.0
 -1.800000042000e-01  -1.509523585400e-01  0.0
 -1.900000036000e-01  -1.575555175600e-01  0.0
 -1.500000060000e-01  -1.408571615600e-01  0.0
 -1.600000054000e-01  -1.474603205800e-01  0.0
 -1.700000048000e-01  -1.540634796000e-01  0.0
 -1.800000042000e-01  -1.606666386200e-01  0.0
 -1.500000060000e-01  -1.505714416400e-01  0.0
 -1.600000054000e-01  -1.571746006600e-01  0.0
 -1.700000048000e-01  -1.637777596800e-01  0.0
 -1.500000060000e-01  -1.602857217200e-01  0.0
 -1.600000054000e-01  -1.668888807400e-01  0.0
 -1.500000060000e-01  -1.700000018000e-01  0.0
 -1.500000060000e-01  -7.285714149000e-02  0.0
 -1.600000054000e-01  -8.006349355200e-02  0.0
 -1.700000048000e-01  -8.726984561400e-02  0.0
 -1.800000042000e-01  -9.447619767600e-02  0.0
 -1.900000036000e-01  -1.016825497380e-01  0.0
 -2.000000030000e-01  -1.088889018000e-01  0.0
 -1.500000060000e-01  -8.257143347200e-02  0.0
 -1.600000054000e-01  -8.977778553400e-02  0.0
 -1.700000048000e-01  -9.698413759600e-02  0.0
 -1.800000042000e-01  -1.041904896580e-01  0.0
 -1.900000036000e-01  -1.113968417200e-01  0.0
 -1.500000060000e-01  -9.228572545400e-02  0.0
 -1.600000054000e-01  -9.949207751600e-02  0.0
 -1.700000048000e-01  -1.066984295780e-01  0.0
 -1.800000042000e-01  -1.139047816400e-01  0.0
 -1.500000060000e-01  -1.020000174360e-01  0.0
 -1.600000054000e-01  -1.092063694980e-01  0.0
 -1.700000048000e-01  -1.164127215600e-01  0.0
 -1.500000060000e-01  -1.117143094180e-01  0.0
 -1.600000054000e-01  -1.189206614800e-01  0.0
 -1.500000060000e-01  -1.214286014000e-01  0.0
  1.832975030000e+00  -4.625000060000e-02  0.0
  1.841380024000e+00  -7.700000108000e-02  0.0
  1.849785018000e+00  -1.077500015600e-01  0.0
  1.858190012000e+00  -1.385000020400e-01  0.0
  1.866595006000e+00  -1.692500025200e-01  0.0
  1.875000000000e+00  -2.000000030000e-01  0.0
  1.866380024000e+00  -5.649999976400e-02  0.0
  1.874785018000e+00  -8.725000024400e-02  0.0
  1.883190012000e+00  -1.180000007240e-01  0.0
  1.891595006000e+00  -1.487500012040e-01  0.0
  1.900000000000e+00  -1.795000016840e-01  0.0
  1.899785018000e+00  -6.674999892800e-02  0.0
  1.908190012000e+00  -9.749999940800e-02  0.0
  1.916595006000e+00  -1.282499998880e-01  0.0
  1.925000000000e+00  -1.590000003680e-01  0.0
  1.933190012000e+00  -7.699999809200e-02  0.0
  1.941595006000e+00  -1.077499985720e-01  0.0
  1.950000000000e+00  -1.384999990520e-01  0.0
  1.966595006000e+00  -8.724999725600e-02  0.0
  1.975000000000e+00  -1.179999977360e-01  0.0
  2.000000000000e+00  -9.749999642000e-02  0.0
 -1.500000060000e-01  -1.700000018000e-01  0.0
 -1.444000050800e-01  -1.630000025200e-01  0.0
 -1.388000041600e-01  -1.560000032400e-01  0.0
 -1.332000032400e-01  -1.490000039600e-01  0.0
 -1.276000023200e-01  -1.420000046800e-01  0.0
 -1.220000014000e-01  -1.350000054000e-01  0.0
 -1.500000060000e-01  -1.602857217200e-01  0.0
 -1.444000050800e-01  -1.532857224400e-01  0.0
 -1.388000041600e-01  -1.462857231600e-01  0.0
 -1.332000032400e-01  -1.392857238800e-01  0.0
 -1.276000023200e-01  -1.322857246000e-01  0.0
 -1.500000060000e-01  -1.505714416400e-01  0.0
 -1.444000050800e-01  -1.435714423600e-01  0.0
 -1.388000041600e-01  -1.365714430800e-01  0.0
 -1.332000032400e-01  -1.295714438000e-01  0.0
 -1.500000060000e-01  -1.408571615600e-01  0.0
 -1.444000050800e-01  -1.338571622800e-01  0.0
 -1.388000041600e-01  -1.268571630000e-01  0.0
 -1.500000060000e-01  -1.311428814800e-01  0.0
 -1.444000050800e-01  -1.241428822000e-01  0.0
 -1.500000060000e-01  -1.214286014000e-01  0.0
  2.849999964000e-01  -2.333333530000e-02  0.0
  2.844999968800e-01  -4.666666836000e-02  0.0
  2.839999973600e-01  -7.000000142000e-02  0.0
  2.834999978400e-01  -9.333333448000e-02  0.0
  2.829999983200e-01  -1.166666675400e-01  0.0
  2.824999988000e-01  -1.400000006000e-01  0.0
  2.979999959200e-01  -3.266666830000e-02  0.0
  2.974999964000e-01  -5.600000136000e-02  0.0
  2.969999968800e-01  -7.933333442000e-02  0.0
  2.964999973600e-01  -1.026666674800e-01  0.0
  2.959999978400e-01  -1.260000005400e-01  0.0
  3.109999954400e-01  -4.200000130000e-02  0.0
  3.104999959200e-01  -6.533333436000e-02  0.0
  3.099999964000e-01  -8.866666742000e-02  0.0
  3.094999968800e-01  -1.120000004800e-01  0.0
  3.239999949600e-01  -5.133333430000e-02  0.0
  3.234999954400e-01  -7.466666736000e-02  0.0
  3.229999959200e-01  -9.800000042000e-02  0.0
  3.369999944800e-01  -6.066666730000e-02  0.0
  3.364999949600e-01  -8.400000036000e-02  0.0
  3.499999940000e-01  -7.000000030000e-02  0.0
 -1.071429029000e-01  -1.700000018000e-01  0.0
 -9.857146590000e-02  -1.700000018000e-01  0.0
 -9.000002890000e-02  -1.700000018000e-01  0.0
 -8.142859190000e-02  -1.700000018000e-01  0.0
 -7.285715490000e-02  -1.700000018000e-01  0.0
 -6.428571790000e-02  -1.700000018000e-01  0.0
 -1.037143230360e-01  -1.630000025200e-01  0.0
 -9.514288603600e-02  -1.630000025200e-01  0.0
 -8.657144903600e-02  -1.630000025200e-01  0.0
 -7.800001203600e-02  -1.630000025200e-01  0.0
 -6.942857503600e-02  -1.630000025200e-01  0.0
 -1.002857431720e-01  -1.560000032400e-01  0.0
 -9.171430617200e-02  -1.560000032400e-01  0.0
 -8.314286917200e-02  -1.560000032400e-01  0.0
 -7.457143217200e-02  -1.560000032400e-01  0.0
 -9.685716330800e-02  -1.490000039600e-01  0.0
 -8.828572630800e-02  -1.490000039600e-01  0.0
 -7.971428930800e-02  -1.490000039600e-01  0.0
 -9.342858344400e-02  -1.420000046800e-01  0.0
 -8.485714644400e-02  -1.420000046800e-01  0.0
 -9.000000358000e-02  -1.350000054000e-01  0.0
 -1.312499940000e-01  -2.000000030000e-01  0.0
 -1.264285757800e-01  -1.940000027600e-01  0.0
 -1.216071575600e-01  -1.880000025200e-01  0.0
 -1.167857393400e-01  -1.820000022800e-01  0.0
 -1.119643211200e-01  -1.760000020400e-01  0.0
 -1.071429029000e-01  -1.700000018000e-01  0.0
 -1.349999964000e-01  -1.940000027600e-01  0.0
 -1.301785781800e-01  -1.880000025200e-01  0.0
 -1.253571599600e-01  -1.820000022800e-01  0.0
 -1.205357417400e-01  -1.760000020400e-01  0.0
 -1.157143235200e-01  -1.700000018000e-01  0.0
 -1.387499988000e-01  -1.880000025200e-01  0.0
 -1.339285805800e-01  -1.820000022800e-01  0.0
 -1.291071623600e-01  -1.760000020400e-01  0.0
 -1.242857441400e-01  -1.700000018000e-01  0.0
 -1.425000012000e-01  -1.820000022800e-01  0.0
 -1.376785829800e-01  -1.760000020400e-01  0.0
 -1.328571647600e-01  -1.700000018000e-01  0.0
 -1.462500036000e-01  -1.760000020400e-01  0.0
 -1.414285853800e-01  -1.700000018000e-01  0.0
 -1.500000060000e-01  -1.700000018000e-01  0.0
[...]
POINT_DATA 7854
SCALARS field1 double 1
LOOKUP_TABLE default
  2.513826372438e-05 
  1.924845400958e-03 
  1.600305952397e-03 
  1.612495174023e-03 
  1.735944127709e-03 
  2.006736701396e-03 
  8.660805294449e-06 
  1.628090181856e-03 
  1.333449329603e-03 
  1.372960755308e-03 
  1.622251073866e-03 
 -3.578595863895e-06 
  1.294948919214e-03 
  1.062079842746e-03 
  1.251588194833e-03 
  2.367345535808e-05 
  8.098702691741e-04 
  8.536111252724e-04 
  5.823986698768e-06 
  4.210739748267e-04 
  5.878598047022e-06 
  3.699980226666e-03 
  3.542834248802e-03 
  3.484337366177e-03 
  3.387515647354e-03 
  3.204474433257e-03 
  8.657417556479e-06 
  3.589663679612e-03 
  3.564551129203e-03 
  3.419508032463e-03 
  3.295598330638e-03 
  1.245889414874e-06 
  3.622862326940e-03 
  3.469737794243e-03 
  3.356905656187e-03 
  2.459539037465e-06 
  3.511940412286e-03 
  3.416276736217e-03 
  1.884946842920e-06 
  3.466018346910e-03 
  1.422655156341e-06 
  2.421687637541e-06 
  1.976833069585e-03 
  2.359012765284e-03 
  2.613957294824e-03 
  2.824455456319e-03 
  3.041904041266e-03 
  3.184853456436e-03 
  2.304052354503e-03 
  2.596920257858e-03 
  2.853397888843e-03 
  3.042048859918e-03 
  3.203414162774e-03 
  2.628156366145e-03 
  2.872002075349e-03 
  3.057015866186e-03 
  3.249631486537e-03 
  2.926568972681e-03 
  3.105445984538e-03 
  3.286238938698e-03 
  3.208230509606e-03 
  3.343953148264e-03 
  3.454846675520e-03 
  3.187889619358e-03 
  3.043565735836e-03 
  2.829493101311e-03 
  2.610366397382e-03 
  2.362638152596e-03 
  1.978096816520e-03 
  3.015796358525e-03 
  2.892059560046e-03 
  2.650130303868e-03 
  2.363037665168e-03 
  1.958967572331e-03 
  2.909429223860e-03 
  2.723229274408e-03 
  2.447014323402e-03 
  2.127800466738e-03 
  2.803035752943e-03 
  2.558418239064e-03 
  2.269918667751e-03 
  2.682603964604e-03 
  2.411799928174e-03 
  2.604049340883e-03 
  3.733669048962e-03 
  3.728433370221e-03 
  3.700158086699e-03 
  3.656644173640e-03 
  3.608398114832e-03 
  3.457495675488e-03 
  3.613395545766e-03 
  3.632378422096e-03 
  3.572803507504e-03 
  3.482166164303e-03 
  3.343949650710e-03 
  3.539096398093e-03 
  3.496616641297e-03 
  3.398782262232e-03 
  3.290661021726e-03 
  3.468639600242e-03 
  3.350936664195e-03 
  3.244689884537e-03 
  3.374027635337e-03 
  3.202407260653e-03 
  3.186833791300e-03 
  3.706102634416e-03 
  3.178376580235e-03 
  3.314693367264e-03 
  3.136802756494e-03 
  3.473460155841e-03 
  9.287849182699e-04 
  3.373528608725e-03 
  3.327997000461e-03 
  3.266067424186e-03 
  3.177453417993e-03 
  3.270167510590e-03 
  3.365418700554e-03 
  3.313391831195e-03 
  3.246598866231e-03 
  3.186679301810e-03 
  3.360609359900e-03 
  3.298032411230e-03 
  3.282191645509e-03 
  3.382863940574e-03 
  3.153321864490e-03 
  3.809433567046e-03 
  2.599951476166e-03 
  2.742120495087e-03 
  2.886999058107e-03 
  3.012026244904e-03 
  3.136380814079e-03 
  3.290150036852e-03 
  2.683904450934e-03 
  2.841819641045e-03 
  2.986645415729e-03 
  3.119927205370e-03 
  3.224644914860e-03 
  2.804201461903e-03 
  2.954509715988e-03 
  3.088088033309e-03 
  3.220704862916e-03 
  2.912600814854e-03 
  3.077910127274e-03 
  3.195539121594e-03 
  3.022731002235e-03 
  3.206277112742e-03 
  3.189921324889e-03 
  3.392013442816e-03 
  3.338706177562e-03 
  3.345874182828e-03 
  3.394856652505e-03 
  3.355779473760e-03 
  3.716523889350e-03 
  3.336338287231e-03 
  3.347038571408e-03 
  3.365696871602e-03 
  3.368138337305e-03 
  3.394770808913e-03 
  3.356141111320e-03 
  3.352916566886e-03 
  3.372423012795e-03 
  3.375177369825e-03 
  3.353206868162e-03 
  3.358162747321e-03 
  3.349101125699e-03 
  3.360533365374e-03 
  3.369598863129e-03 
  3.319019672271e-03 
  3.233536666270e-03 
  3.293551008595e-03 
  3.378942234821e-03 
  3.461790216356e-03 
  3.540810313475e-03 
  3.679467947363e-03 
  3.269198633536e-03 
  3.360026757602e-03 
  3.438839915776e-03 
  3.524484326936e-03 
  3.600230361414e-03 
  3.326989888165e-03 
  3.414594922524e-03 
  3.494817969825e-03 
  3.571163318984e-03 
  3.387364385012e-03 
  3.472813749627e-03 
  3.545145731698e-03 
  3.453435028208e-03 
  3.532064375874e-03 
  3.524031033989e-03 
  1.125213333151e-05 
  2.761884647313e-03 
  2.935461998491e-03 
  3.033053252890e-03 
  3.120651457198e-03 
  3.250735927701e-03 
  2.626533935332e-03 
  2.800414091670e-03 
  2.898914493382e-03 
  3.045268509538e-03 
  3.091341538880e-03 
  2.647334251794e-03 
  2.760454138282e-03 
  2.917224150777e-03 
  2.984238773039e-03 
  2.610202027044e-03 
  2.781059785494e-03 
  2.859396651406e-03 
  2.590324762477e-03 
  2.720500455908e-03 
  2.594502258173e-03 
  3.279162596188e-03 
  3.304911618900e-03 
  3.360087867816e-03 
  3.411036451633e-03 
  3.465440131588e-03 
  3.519866675851e-03 
  3.313401850454e-03 
  3.358772168037e-03 
  3.408822562506e-03 
  3.457371519792e-03 
  3.509321113530e-03 
  3.372985819828e-03 
  3.410836463022e-03 
  3.453477250424e-03 
  3.501402460467e-03 
  3.423746849198e-03 
  3.457110104140e-03 
  3.492840350765e-03 
  3.463417680134e-03 
  3.496237720582e-03 
  3.504312833780e-03 
  3.521391706356e-03 
  3.465049851418e-03 
  3.411712594590e-03 
  3.359861958660e-03 
  3.304844587327e-03 
  3.280208848972e-03 
  3.452859074576e-03 
  3.401277910238e-03 
  3.341073495694e-03 
  3.287639231434e-03 
  3.215854876508e-03 
  3.387265269422e-03 
  3.336830421003e-03 
  3.273174244152e-03 
  3.206464043598e-03 
  3.327620964674e-03 
  3.265359060538e-03 
  3.198409100907e-03 
  3.268432394316e-03 
  3.203696017332e-03 
  3.238494211333e-03 
  3.729182144970e-03 
  3.665892297517e-03 
  3.614065425117e-03 
  3.573593774381e-03 
  3.536357485792e-03 
  3.503689388768e-03 
  3.705659557138e-03 
  3.644256577824e-03 
  3.589226325259e-03 
  3.540847680056e-03 
  3.496116810317e-03 
  3.671229575019e-03 
  3.608187629630e-03 
  3.549907138023e-03 
  3.493206766046e-03 
  3.628396747114e-03 
  3.562690234328e-03 
  3.501482203189e-03 
  3.578106945407e-03 
  3.509313245238e-03 
  3.521503350335e-03 
  3.281559192557e-03 
  3.314894272816e-03 
  3.373725606927e-03 
  3.424794773490e-03 
  3.462793995202e-03 
  3.504834503382e-03 
  3.226816145574e-03 
  3.300000261047e-03 
  3.359414963676e-03 
  3.412007255760e-03 
  3.462282348547e-03 
  3.218173282194e-03 
  3.283605405128e-03 
  3.353824999169e-03 
  3.404099678604e-03 
  3.198231407222e-03 
  3.278700593987e-03 
  3.355538857708e-03 
  3.205961413359e-03 
  3.281719832875e-03 
  3.195009347560e-03 
  3.728920699262e-03 
  3.705962012661e-03 
  3.671084294759e-03 
  3.628540603535e-03 
  3.577579433349e-03 
  3.523554247970e-03 
  3.778543020807e-03 
  3.744244998661e-03 
  3.701684583826e-03 
  3.651579672713e-03 
  3.600101529740e-03 
  3.824059884787e-03 
  3.780307623969e-03 
  3.730749629005e-03 
  3.678593775738e-03 
  3.868726232028e-03 
  3.814394716253e-03 
  3.758003130695e-03 
  3.908256798887e-03 
  3.843304964177e-03 
  3.946282125372e-03 
  3.243152088081e-03 
  3.203309676315e-03 
  3.198385120730e-03 
  3.206415063363e-03 
  3.214898747860e-03 
  3.284755086808e-03 
  3.090434162587e-03 
  3.098532289522e-03 
  3.100190974945e-03 
  3.116554633640e-03 
  3.137840134166e-03 
  2.981702982949e-03 
  2.984608507188e-03 
  2.998493213087e-03 
  3.012875581646e-03 
  2.858661937619e-03 
  2.870061777779e-03 
  2.887318156839e-03 
  2.718320168426e-03 
  2.743054623279e-03 
  2.595923696719e-03 
  2.826302813958e-06 
  2.843039536861e-06 
  2.165864964057e-06 
  2.566145513104e-06 
  1.824913272224e-06 
  6.139510271389e-06 
  3.741253475176e-03 
  3.766369596785e-03 
  3.750006075026e-03 
  3.723446384859e-03 
  3.645598363336e-03 
  3.861028827456e-03 
  3.818709607252e-03 
  3.800096851003e-03 
  3.802097249487e-03 
  3.919294889578e-03 
  3.916657158195e-03 
  3.892367503640e-03 
  3.902173723095e-03 
  3.901327801415e-03 
  4.034639522088e-03 
  3.733074214443e-03 
  3.617803662842e-03 
  3.540739651229e-03 
  3.466443546451e-03 
  3.367688585029e-03 
  3.193964322216e-03 
  3.651334117582e-03 
  3.577379774702e-03 
  3.489295410453e-03 
  3.389495508558e-03 
  3.282784054781e-03 
  3.585349685100e-03 
  3.517040845488e-03 
  3.446380951774e-03 
  3.355967956782e-03 
  3.555465229499e-03 
  3.481820271311e-03 
  3.402661508025e-03 
  3.517238383643e-03 
  3.462815393298e-03 
  3.503785992762e-03 
  4.458025194566e-03 
  4.270428167747e-03 
  4.121277835880e-03 
  3.979439850947e-03 
  3.830800598053e-03 
  3.728025130443e-03 
  4.435532125636e-03 
  4.232083996327e-03 
  4.062422429370e-03 
  3.920821336342e-03 
  3.848942196188e-03 
  4.323244667946e-03 
  4.156507157267e-03 
  3.995495792012e-03 
  3.874790116920e-03 
  4.216048352493e-03 
  4.058016070140e-03 
  3.885608527873e-03 
  4.088051559632e-03 
  3.915264773386e-03 
  3.968521623695e-03 
  4.453107180606e-03 
  4.293593396220e-03 
  4.116070012664e-03 
  3.912132541925e-03 
  3.691575622102e-03 
  3.457924398306e-03 
  4.270246508496e-03 
  4.136302620677e-03 
  3.978185614010e-03 
  3.799838119431e-03 
  3.611425148261e-03 
  4.117190211330e-03 
  3.968936513867e-03 
  3.833769477135e-03 
  3.660168492428e-03 
  3.985061503622e-03 
  3.850899467707e-03 
  3.698127199868e-03 
  3.830190383275e-03 
  3.726664488347e-03 
  3.733865707564e-03 
  4.451936855517e-03 
  4.439249173119e-03 
  4.325224906415e-03 
  4.216378537556e-03 
  4.086738146773e-03 
  3.971288086202e-03 
  4.583188446464e-03 
  4.542866284576e-03 
  4.410375875281e-03 
  4.288990192036e-03 
  4.123434745755e-03 
  4.704547672086e-03 
  4.628999402211e-03 
  4.468474363035e-03 
  4.340410118596e-03 
  4.807230614093e-03 
  4.699641099717e-03 
  4.529060941948e-03 
  4.884657694706e-03 
  4.747967421898e-03 
  4.950860962610e-03 
  3.967010387401e-03 
  3.916291031962e-03 
  3.886277993504e-03 
  3.871759194231e-03 
  3.841116168808e-03 
  3.731994175482e-03 
  3.815073812904e-03 
  3.801957158612e-03 
  3.779365610532e-03 
  3.748805603006e-03 
  3.716767613939e-03 
  3.673759973429e-03 
  3.675151773345e-03 
  3.677279494582e-03 
  3.667638589334e-03 
  3.549089642442e-03 
  3.562533592631e-03 
  3.571357902582e-03 
  3.422857673590e-03 
  3.467003195198e-03 
  3.285458053255e-03 
  3.198739519303e-03 
  3.393822839684e-03 
  3.546213986002e-03 
  3.700112565099e-03 
  3.830507329325e-03 
  3.966211518335e-03 
  3.216322487141e-03 
  3.385721754252e-03 
  3.545053330079e-03 
  3.683475673889e-03 
  3.815217864065e-03 
  3.215469939043e-03 
  3.390128921872e-03 
  3.542519529879e-03 
  3.673610195526e-03 
  3.234050554288e-03 
  3.403308214756e-03 
  3.548583317820e-03 
  3.267624108198e-03 
  3.422139394773e-03 
  3.287698290313e-03 
  3.962413548470e-03 
  4.007628489628e-03 
  3.994880991921e-03 
  3.991029838304e-03 
  4.003276030545e-03 
  4.012263637642e-03 
  4.124933202827e-03 
  4.160102458017e-03 
  4.174727206592e-03 
  4.183769867935e-03 
  4.168338758490e-03 
  4.335509157018e-03 
  4.354066225765e-03 
  4.375292727662e-03 
  4.379292916868e-03 
  4.532482097017e-03 
  4.565017467553e-03 
  4.580445038977e-03 
  4.746678201972e-03 
  4.793048273825e-03 
  4.960643504794e-03 
  3.732614084166e-03 
  3.669209746123e-03 
  3.608359534360e-03 
  3.560211458557e-03 
  3.524095669925e-03 
  3.495371356098e-03 
  3.715724479950e-03 
  3.635884646696e-03 
  3.566198658858e-03 
  3.504713505879e-03 
  3.455304511339e-03 
  3.666887762444e-03 
  3.573860657366e-03 
  3.484368131421e-03 
  3.411495144024e-03 
  3.572550699961e-03 
  3.470106838900e-03 
  3.367379181603e-03 
  3.466387325776e-03 
  3.327258188911e-03 
  3.288123443257e-03 
  3.820266353231e-03 
  3.496681556044e-03 
  3.452993469267e-03 
  3.424860935208e-03 
  3.420594462950e-03 
  3.500379936088e-03 
  3.247943384438e-03 
  3.395192806382e-03 
  3.379434244910e-03 
  3.405136291935e-03 
  3.354897880725e-03 
  3.401862244704e-03 
  3.343536614255e-03 
  3.348850552620e-03 
  3.293848694191e-03 
  3.279684400658e-03 
  3.279562508385e-03 
  3.275650775341e-03 
  3.315436433159e-03 
  3.411553253497e-03 
  6.324924391117e-04 
  3.131666965446e-03 
  3.257856291857e-03 
  3.344203191840e-03 
  3.411674387677e-03 
  3.464984273472e-03 
  3.499044244595e-03 
  3.260244466928e-03 
  3.350702348324e-03 
  3.418394451367e-03 
  3.468749923847e-03 
  3.506025846390e-03 
  3.394421175381e-03 
  3.452520504198e-03 
  3.496339188745e-03 
  3.528142169838e-03 
  3.531289047495e-03 
  3.558403365655e-03 
  3.577116652360e-03 
  3.667225567743e-03 
  3.663992596911e-03 
  3.797451499094e-03 
  3.495088288818e-03 
  3.524202922975e-03 
  3.560228703014e-03 
  3.608093736062e-03 
  3.668789080255e-03 
  3.733103455624e-03 
  3.543921298016e-03 
  3.547728586302e-03 
  3.573146162559e-03 
  3.604281595232e-03 
  3.651380549115e-03 
  3.555487055410e-03 
  3.557336312539e-03 
  3.562825201953e-03 
  3.584949147450e-03 
  3.554373429841e-03 
  3.544846349351e-03 
  3.552641526579e-03 
  3.544390401319e-03 
  3.516380839887e-03 
  3.503256870167e-03 
  1.670998102564e-03 
  1.922557217891e-03 
  2.130285241356e-03 
  2.309047301847e-03 
  2.464129215912e-03 
  2.605400827616e-03 
  1.795866771629e-03 
  2.018373025356e-03 
  2.210808942628e-03 
  2.378195630954e-03 
  2.521768755588e-03 
  1.942323532555e-03 
  2.144592913142e-03 
  2.315698667642e-03 
  2.465659951286e-03 
  2.123710296888e-03 
  2.295451433919e-03 
  2.441259183695e-03 
  2.335810997619e-03 
  2.467739525694e-03 
  2.565085255650e-03 
  2.605184501055e-03 
  2.792300648000e-03 
  2.950113686286e-03 
  3.085016742532e-03 
  3.202055467518e-03 
  3.291421919524e-03 
  2.672902869649e-03 
  2.847198409174e-03 
  2.992788478774e-03 
  3.115639606461e-03 
  3.223021442658e-03 
  2.767265574738e-03 
  2.919465155108e-03 
  3.047664602326e-03 
  3.155844185517e-03 
  2.881258095727e-03 
  3.005594510484e-03 
  3.113505106873e-03 
  3.005951945950e-03 
  3.103367741417e-03 
  3.131835658453e-03 
  3.131066851856e-03 
  3.059951038281e-03 
  2.963946591451e-03 
  2.852982991035e-03 
  2.723334342816e-03 
  2.565079816234e-03 
  3.005311751461e-03 
  2.901696609786e-03 
  2.782896515289e-03 
  2.639533351219e-03 
  2.467776042401e-03 
  2.881032275271e-03 
  2.757078813754e-03 
  2.612528546445e-03 
  2.441214776015e-03 
  2.767005209125e-03 
  2.628576590266e-03 
  2.465640244032e-03 
  2.672629077145e-03 
  2.521800337758e-03 
  2.605385762747e-03 
  2.605531448420e-03 
  2.687727021764e-03 
  2.808195128784e-03 
  2.942258307698e-03 
  3.087819140361e-03 
  3.204285739342e-03 
  2.792532235299e-03 
  2.866507718257e-03 
  2.968676717963e-03 
  3.087097387331e-03 
  3.215648983402e-03 
  2.950310298635e-03 
  3.017979202306e-03 
  3.109455792240e-03 
  3.215724323961e-03 
  3.085103671688e-03 
  3.148312187661e-03 
  3.233947427274e-03 
  3.202412490749e-03 
  3.266798046642e-03 
  3.290170977455e-03 
  3.728983756550e-03 
  3.758977106582e-03 
  3.781365318527e-03 
  3.798212992109e-03 
  3.806680487264e-03 
  3.797721562373e-03 
  3.687168882676e-03 
  3.700948556305e-03 
  3.703634033847e-03 
  3.692270746230e-03 
  3.663958457279e-03 
  3.642355240903e-03 
  3.636839421792e-03 
  3.617610070296e-03 
  3.577174617477e-03 
  3.595542697277e-03 
  3.570667274734e-03 
  3.528050271693e-03 
  3.548034448223e-03 
  3.506062391559e-03 
  3.498887776569e-03 
  3.132439276058e-03 
  3.103363883432e-03 
  3.113741297768e-03 
  3.155640697974e-03 
  3.223183313689e-03 
  3.290632336281e-03 
  3.257975973464e-03 
  3.226157000981e-03 
  3.235173041817e-03 
  3.271516107540e-03 
  3.327938951349e-03 
  3.344231496285e-03 
  3.323539581773e-03 
  3.330172862439e-03 
  3.367217248367e-03 
  3.411494039937e-03 
  3.396668858525e-03 
  3.411009235814e-03 
  3.465264337846e-03 
  3.454935232918e-03 
  3.497682046643e-03 
  3.728792419681e-03 
  3.687079410292e-03 
  3.642478537089e-03 
  3.595639262263e-03 
  3.547977129804e-03 
  3.496921175005e-03 
  3.666086260177e-03 
  3.635468671898e-03 
  3.602602084649e-03 
  3.570234553540e-03 
  3.543392532455e-03 
  3.614010950295e-03 
  3.595196206192e-03 
  3.576539920400e-03 
  3.555957174721e-03 
  3.573797631156e-03 
  3.563125151529e-03 
  3.554384565924e-03 
  3.536600294407e-03 
  3.543474191544e-03 
  3.503263630327e-03 
  2.605429433965e-03 
  2.464182851651e-03 
  2.309100382914e-03 
  2.130124902459e-03 
  1.922732793225e-03 
  1.670676674650e-03 
  2.514401735839e-03 
  2.361753429580e-03 
  2.190524533545e-03 
  1.991290245135e-03 
  1.762625337636e-03 
  2.446156803363e-03 
  2.285117382559e-03 
  2.103958927257e-03 
  1.893917521046e-03 
  2.403432194755e-03 
  2.238670040588e-03 
  2.055388381200e-03 
  2.387988008467e-03 
  2.226200791189e-03 
  2.392803505827e-03 
  3.947004649400e-03 
  3.843085867562e-03 
  3.758262330489e-03 
  3.678597726977e-03 
  3.600143133996e-03 
  3.524542868375e-03 
  3.854471955450e-03 
  3.775030434159e-03 
  3.692259539992e-03 
  3.615336258597e-03 
  3.532531670939e-03 
  3.787385688920e-03 
  3.710247803366e-03 
  3.633048432309e-03 
  3.546125625453e-03 
  3.724979481476e-03 
  3.647704679996e-03 
  3.571905144957e-03 
  3.665304240126e-03 
  3.600647235303e-03 
  3.680788957211e-03 
  3.583567451245e-03 
  3.366090077974e-03 
  3.342105617314e-03 
  3.345242247914e-03 
  3.357396277806e-03 
  3.753646632093e-03 
  3.260753262419e-03 
  3.270666536256e-03 
  3.268021444545e-03 
  3.265523023555e-03 
  3.194459014357e-03 
  3.284970662549e-03 
  3.273756474076e-03 
  3.282903489491e-03 
  3.279437741243e-03 
  3.255105995191e-03 
  3.259085781344e-03 
  3.234018310343e-03 
  3.240745613530e-03 
  3.301403035219e-03 
  3.205086891591e-03 
  4.103250910426e-03 
  4.026123595642e-03 
  3.970506813611e-03 
  3.931598869249e-03 
  3.905895560464e-03 
  3.903209405185e-03 
  4.119636849169e-03 
  4.054826542655e-03 
  3.999085666465e-03 
  3.951567994586e-03 
  3.925621028391e-03 
  4.146251922827e-03 
  4.068949693332e-03 
  4.014577275718e-03 
  3.963797388237e-03 
  4.159663181219e-03 
  4.084577253442e-03 
  4.016768923677e-03 
  4.163590460957e-03 
  4.082574040151e-03 
  4.168855949319e-03 
  4.101301260728e-03 
  4.079486507588e-03 
  4.054374979473e-03 
  4.019371546846e-03 
  3.979924041121e-03 
  3.946150737646e-03 
  3.972603759834e-03 
  3.953635719517e-03 
  3.924558879457e-03 
  3.894807730800e-03 
  3.854445970124e-03 
  3.868885705789e-03 
  3.849250749177e-03 
  3.820145827680e-03 
  3.787006930736e-03 
  3.780594688516e-03 
  3.753745022443e-03 
  3.724923891150e-03 
  3.699662733453e-03 
  3.665091984019e-03 
  3.680917548052e-03 
  3.728992911939e-03 
  3.804543382410e-03 
  3.898637651324e-03 
  4.020454878394e-03 
  4.180979735284e-03 
  4.394193455587e-03 
  3.758848493906e-03 
  3.840915438526e-03 
  3.949274116077e-03 
  4.096028345083e-03 
  4.293189933530e-03 
  3.781289766430e-03 
  3.874385613429e-03 
  4.002956771319e-03 
  4.182598465831e-03 
  3.798086983712e-03 
  3.905122483534e-03 
  4.062110254572e-03 
  3.806523542193e-03 
  3.932622212572e-03 
  3.797261991448e-03 
  4.394278477516e-03 
  4.180987806631e-03 
  4.020432243982e-03 
  3.898662286860e-03 
  3.804514239265e-03 
  3.729153215630e-03 
  4.276043879681e-03 
  4.106331698009e-03 
  3.972274439924e-03 
  3.865495511268e-03 
  3.778107717707e-03 
  4.176989925728e-03 
  4.036689782853e-03 
  3.921241143189e-03 
  3.824015332271e-03 
  4.090069259676e-03 
  3.969458309283e-03 
  3.868260772282e-03 
  4.009428625573e-03 
  3.907844491100e-03 
  3.944854767099e-03 
  4.783578553631e-03 
  4.736196893472e-03 
  4.673799864237e-03 
  4.595510128383e-03 
  4.501591979198e-03 
  4.395342667626e-03 
  4.539882077298e-03 
  4.490194451688e-03 
  4.428090285298e-03 
  4.355987681922e-03 
  4.275861908112e-03 
  4.340391995705e-03 
  4.293762490691e-03 
  4.238174184256e-03 
  4.177117086357e-03 
  4.180612516563e-03 
  4.137669606977e-03 
  4.089939858422e-03 
  4.050156621559e-03 
  4.009347349521e-03 
  3.944266999552e-03 
  4.920285014755e-03 
  4.573641252430e-03 
  4.294860423018e-03 