# vtk DataFile Version 2
NuDG++ 2D simulation
ASCII
DATASET UNSTRUCTURED_GRID

POINTS 7854 double
 -1.656250060000e-01  -2.000000030000e-01  0.0
 -1.725000054000e-01  -1.908888817000e-01  0.0
 -1.793750048000e-01  -1.817777604000e-01  0.0
 -1.862500042000e-01  -1.726666391000e-01  0.0
 -1.931250036000e-01  -1.635555178000e-01  0.0
 -2.000000030000e-01  -1.544443965000e-01  0.0
 -1.725000054000e-01  -2.000000030000e-01  0.0
 -1.793750048000e-01  -1.908888817000e-01  0.0
 -1.862500042000e-01  -1.817777604000e-01  0.0
 -1.931250036000e-01  -1.726666391000e-01  0.0
 -2.000000030000e-01  -1.635555178000e-01  0.0
 -1.793750048000e-01  -2.000000030000e-01  0.0
 -1.862500042000e-01  -1.908888817000e-01  0.0
 -1.931250036000e-01  -1.817777604000e-01  0.0
 -2.000000030000e-01  -1.726666391000e-01  0.0
 -1.862500042000e-01  -2.000000030000e-01  0.0
 -1.931250036000e-01  -1.908888817000e-01  0.0
 -2.000000030000e-01  -1.817777604000e-01  0.0
 -1.931250036000e-01  -2.000000030000e-01  0.0
 -2.000000030000e-01  -1.908888817000e-01  0.0
 -2.000000030000e-01  -2.000000030000e-01  0.0
 -6.428571790000e-02  -1.700000018000e-01  0.0
 -7.080357372400e-02  -1.760000020400e-01  0.0
 -7.732142954800e-02  -1.820000022800e-01  0.0
 -8.383928537200e-02  -1.880000025200e-01  0.0
 -9.035714119600e-02  -1.940000027600e-01  0.0
 -9.687499702000e-02  -2.000000030000e-01  0.0
 -6.392857432000e-02  -1.760000020400e-01  0.0
 -7.044643014400e-02  -1.820000022800e-01  0.0
 -7.696428596800e-02  -1.880000025200e-01  0.0
 -8.348214179200e-02  -1.940000027600e-01  0.0
 -8.999999761600e-02  -2.000000030000e-01  0.0
 -6.357143074000e-02  -1.820000022800e-01  0.0
 -7.008928656400e-02  -1.880000025200e-01  0.0
 -7.660714238800e-02  -1.940000027600e-01  0.0
 -8.312499821200e-02  -2.000000030000e-01  0.0
 -6.321428716000e-02  -1.880000025200e-01  0.0
 -6.973214298400e-02  -1.940000027600e-01  0.0
 -7.624999880800e-02  -2.000000030000e-01  0.0
 -6.285714358000e-02  -1.940000027600e-01  0.0
 -6.937499940400e-02  -2.000000030000e-01  0.0
 -6.250000000000e-02  -2.000000030000e-01  0.0
 -2.000000030000e-01  -1.544443965000e-01  0.0
 -1.900000036000e-01  -1.478412374800e-01  0.0
 -1.800000042000e-01  -1.412380784600e-01  0.0
 -1.700000048000e-01  -1.346349194400e-01  0.0
 -1.600000054000e-01  -1.280317604200e-01  0.0
 -1.500000060000e-01  -1.214286014000e-01  0.0
 -2.000000030000e-01  -1.453332975600e-01  0.0
 -1.900000036000e-01  -1.387301385400e-01  0.0
 -1.800000042000e-01  -1.321269795200e-01  0.0
 -1.700000048000e-01  -1.255238205000e-01  0.0
 -1.600000054000e-01  -1.189206614800e-01  0.0
 -2.000000030000e-01  -1.362221986200e-01  0.0
 -1.900000036000e-01  -1.296190396000e-01  0.0
 -1.800000042000e-01  -1.230158805800e-01  0.0
 -1.700000048000e-01  -1.164127215600e-01  0.0
 -2.000000030000e-01  -1.271110996800e-01  0.0
 -1.900000036000e-01  -1.205079406600e-01  0.0
 -1.800000042000e-01  -1.139047816400e-01  0.0
 -2.000000030000e-01  -1.180000007400e-01  0.0
 -1.900000036000e-01  -1.113968417200e-01  0.0
 -2.000000030000e-01  -1.088889018000e-01  0.0
 -1.500000060000e-01  -1.214286014000e-01  0.0
 -1.600000054000e-01  -1.280317604200e-01  0.0
 -1.700000048000e-01  -1.346349194400e-01  0.0
 -1.800000042000e-01  -1.412380784600e-01  0.0
 -1.900000036000e-01  -1.478412374800e-01  0.0
 -2.000000030000e-01  -1.544443965000e-01  0.0
 -1.500000060000e-01  -1.311428814800e-01  0.0
 -1.600000054000e-01  -1.377460405000e-01  0.0
 -1.700000048000e-01  -1.443491995200e-01  0.0
 -1.800000042000e-01  -1.509523585400e-01  0.0
 -1.900000036000e-01  -1.575555175600e-01  0.0
 -1.500000060000e-01  -1.408571615600e-01  0.0
 -1.600000054000e-01  -1.474603205800e-01  0.0
 -1.700000048000e-01  -1.540634796000e-01  0.0
 -1.800000042000e-01  -1.606666386200e-01  0.0
 -1.500000060000e-01  -1.505714416400e-01  0.0
 -1.600000054000e-01  -1.571746006600e-01  0.0
 -1.700000048000e-01  -1.637777596800e-01  0.0
 -1.500000060000e-01  -1.602857217200e-01  0.0
 -1.600000054000e-01  -1.668888807400e-01  0.0
 -1.500000060000e-01  -1.700000018000e-01  0.0
 -1.500000060000e-01  -7.285714149000e-02  0.0
 -1.600000054000e-01  -8.006349355200e-02  0.0
 -1.700000048000e-01  -8.726984561400e-02  0.0
 -1.800000042000e-01  -9.447619767600e-02  0.0
 -1.900000036000e-01  -1.016825497380e-01  0.0
 -2.000000030000e-01  -1.088889018000e-01  0.0
 -1.500000060000e-01  -8.257143347200e-02  0.0
 -1.600000054000e-01  -8.977778553400e-02  0.0
 -1.700000048000e-01  -9.698413759600e-02  0.0
 -1.800000042000e-01  -1.041904896580e-01  0.0
 -1.900000036000e-01  -1.113968417200e-01  0.0
 -1.500000060000e-01  -9.228572545400e-02  0.0
 -1.600000054000e-01  -9.949207751600e-02  0.0
 -1.700000048000e-01  -1.066984295780e-01  0.0
 -1.800000042000e-01  -1.139047816400e-01  0.0
 -1.500000060000e-01  -1.020000174360e-01  0.0
 -1.600000054000e-01  -1.092063694980e-01  0.0
 -1.700000048000e-01  -1.164127215600e-01  0.0
 -1.500000060000e-01  -1.117143094180e-01  0.0
 -1.600000054000e-01  -1.189206614800e-01  0.0
 -1.500000060000e-01  -1.214286014000e-01  0.0
  1.832975030000e+00  -4.625000060000e-02  0.0
  1.841380024000e+00  -7.700000108000e-02  0.0
  1.849785018000e+00  -1.077500015600e-01  0.0
  1.858190012000e+00  -1.385000020400e-01  0.0
  1.866595006000e+00  -1.692500025200e-01  0.0
  1.875000000000e+00  -2.000000030000e-01  0.0
  1.866380024000e+00  -5.649999976400e-02  0.0
  1.874785018000e+00  -8.725000024400e-02  0.0
  1.883190012000e+00  -1.180000007240e-01  0.0
  1.891595006000e+00  -1.487500012040e-01  0.0
  1.900000000000e+00  -1.795000016840e-01  0.0
  1.899785018000e+00  -6.674999892800e-02  0.0
  1.908190012000e+00  -9.749999940800e-02  0.0
  1.916595006000e+00  -1.282499998880e-01  0.0
  1.925000000000e+00  -1.590000003680e-01  0.0
  1.933190012000e+00  -7.699999809200e-02  0.0
  1.941595006000e+00  -1.077499985720e-01  0.0
  1.950000000000e+00  -1.384999990520e-01  0.0
  1.966595006000e+00  -8.724999725600e-02  0.0
  1.975000000000e+00  -1.179999977360e-01  0.0
  2.000000000000e+00  -9.749999642000e-02  0.0
 -1.500000060000e-01  -1.700000018000e-01  0.0
 -1.444000050800e-01  -1.630000025200e-01  0.0
 -1.388000041600e-01  -1.560000032400e-01  0.0
 -1.332000032400e-01  -1.490000039600e-01  0.0
 -1.276000023200e-01  -1.420000046800e-01  0.0
 -1.220000014000e-01  -1.350000054000e-01  0.0
 -1.500000060000e-01  -1.602857217200e-01  0.0
 -1.444000050800e-01  -1.532857224400e-01  0.0
 -1.388000041600e-01  -1.462857231600e-01  0.0
 -1.332000032400e-01  -1.392857238800e-01  0.0
 -1.276000023200e-01  -1.322857246000e-01  0.0
 -1.500000060000e-01  -1.505714416400e-01  0.0
 -1.444000050800e-01  -1.435714423600e-01  0.0
 -1.388000041600e-01  -1.365714430800e-01  0.0
 -1.332000032400e-01  -1.295714438000e-01  0.0
 -1.500000060000e-01  -1.408571615600e-01  0.0
 -1.444000050800e-01  -1.338571622800e-01  0.0
 -1.388000041600e-01  -1.268571630000e-01  0.0
 -1.500000060000e-01  -1.311428814800e-01  0.0
 -1.444000050800e-01  -1.241428822000e-01  0.0
 -1.500000060000e-01  -1.214286014000e-01  0.0
  2.849999964000e-01  -2.333333530000e-02  0.0
  2.844999968800e-01  -4.666666836000e-02  0.0
  2.839999973600e-01  -7.000000142000e-02  0.0
  2.834999978400e-01  -9.333333448000e-02  0.0
  2.829999983200e-01  -1.166666675400e-01  0.0
  2.824999988000e-01  -1.400000006000e-01  0.0
  2.979999959200e-01  -3.266666830000e-02  0.0
  2.974999964000e-01  -5.600000136000e-02  0.0
  2.969999968800e-01  -7.933333442000e-02  0.0
  2.964999973600e-01  -1.026666674800e-01  0.0
  2.959999978400e-01  -1.260000005400e-01  0.0
  3.109999954400e-01  -4.200000130000e-02  0.0
  3.104999959200e-01  -6.533333436000e-02  0.0
  3.099999964000e-01  -8.866666742000e-02  0.0
  3.094999968800e-01  -1.120000004800e-01  0.0
  3.239999949600e-01  -5.133333430000e-02  0.0
  3.234999954400e-01  -7.466666736000e-02  0.0
  3.229999959200e-01  -9.800000042000e-02  0.0
  3.369999944800e-01  -6.066666730000e-02  0.0
  3.364999949600e-01  -8.400000036000e-02  0.0
  3.499999940000e-01  -7.000000030000e-02  0.0
 -1.071429029000e-01  -1.700000018000e-01  0.0
 -9.857146590000e-02  -1.700000018000e-01  0.0
 -9.000002890000e-02  -1.700000018000e-01  0.0
 -8.142859190000e-02  -1.700000018000e-01  0.0
 -7.285715490000e-02  -1.700000018000e-01  0.0
 -6.428571790000e-02  -1.700000018000e-01  0.0
 -1.037143230360e-01  -1.630000025200e-01  0.0
 -9.514288603600e-02  -1.630000025200e-01  0.0
 -8.657144903600e-02  -1.630000025200e-01  0.0
 -7.800001203600e-02  -1.630000025200e-01  0.0
 -6.942857503600e-02  -1.630000025200e-01  0.0
 -1.002857431720e-01  -1.560000032400e-01  0.0
 -9.171430617200e-02  -1.560000032400e-01  0.0
 -8.314286917200e-02  -1.560000032400e-01  0.0
 -7.457143217200e-02  -1.560000032400e-01  0.0
 -9.685716330800e-02  -1.490000039600e-01  0.0
 -8.828572630800e-02  -1.490000039600e-01  0.0
 -7.971428930800e-02  -1.490000039600e-01  0.0
 -9.342858344400e-02  -1.420000046800e-01  0.0
 -8.485714644400e-02  -1.420000046800e-01  0.0
 -9.000000358000e-02  -1.350000054000e-01  0.0
 -1.312499940000e-01  -2.000000030000e-01  0.0
 -1.264285757800e-01  -1.940000027600e-01  0.0
 -1.216071575600e-01  -1.880000025200e-01  0.0
 -1.167857393400e-01  -1.820000022800e-01  0.0
 -1.119643211200e-01  -1.760000020400e-01  0.0
 -1.071429029000e-01  -1.700000018000e-01  0.0
 -1.349999964000e-01  -1.940000027600e-01  0.0
 -1.301785781800e-01  -1.880000025200e-01  0.0
 -1.253571599600e-01  -1.820000022800e-01  0.0
 -1.205357417400e-01  -1.760000020400e-01  0.0
 -1.157143235200e-01  -1.700000018000e-01  0.0
 -1.387499988000e-01  -1.880000025200e-01  0.0
 -1.339285805800e-01  -1.820000022800e-01  0.0
 -1.291071623600e-01  -1.760000020400e-01  0.0
 -1.242857441400e-01  -1.700000018000e-01  0.0
 -1.425000012000e-01  -1.820000022800e-01  0.0
 -1.376785829800e-01  -1.760000020400e-01  0.0
 -1.328571647600e-01  -1.700000018000e-01  0.0
 -1.462500036000e-01  -1.760000020400e-01  0.0
 -1.414285853800e-01  -1.700000018000e-01  0.0
 -1.500000060000e-01  -1.700000018000e-01  0.0
[...]
POINT_DATA 7854
SCALARS field1 double 1
LOOKUP_TABLE default
 -4.618738971367e-06 
  1.551811102193e-02 
  1.900442909524e-02 
  2.003957849512e-02 
  2.238240516985e-02 
  2.642683348845e-02 
 -3.090556631444e-06 
  1.279247865787e-02 
  1.566224437468e-02 
  1.767636480232e-02 
  2.166598911170e-02 
  2.156448869865e-06 
  9.792693370586e-03 
  1.275517947014e-02 
  1.665041894585e-02 
  6.719202591747e-06 
  7.085875800658e-03 
  1.136760750263e-02 
 -3.072420386159e-06 
  5.811714839092e-03 
  2.186296038746e-06 
  5.112726061811e-02 
  4.894299748320e-02 
  4.502703791373e-02 
  3.756850155316e-02 
  2.377520309410e-02 
 -5.029256742211e-07 
  4.983304685790e-02 
  4.591061594664e-02 
  3.837235573081e-02 
  2.432689142069e-02 
 -1.905117811496e-07 
  4.673643518864e-02 
  3.912420265592e-02 
  2.484741576552e-02 
 -2.181188866012e-07 
  3.982626348248e-02 
  2.533486118527e-02 
 -2.132803873831e-07 
  2.578760924007e-02 
 -1.077234051276e-07 
 -3.261116444913e-07 
  2.642883823316e-02 
  3.041237707785e-02 
  3.464702082994e-02 
  3.831877655721e-02 
  4.127758998803e-02 
  4.366623953649e-02 
  3.092100419585e-02 
  3.443775129180e-02 
  3.797415115829e-02 
  4.101259200796e-02 
  4.344151877211e-02 
  3.514916767673e-02 
  3.824040333054e-02 
  4.115915771638e-02 
  4.359179473257e-02 
  3.911245599824e-02 
  4.181885810734e-02 
  4.416378252497e-02 
  4.281134624420e-02 
  4.515493158723e-02 
  4.624842040146e-02 
  4.366506633786e-02 
  4.127776102519e-02 
  3.831762303634e-02 
  3.464761787800e-02 
  3.041177430625e-02 
  2.643100240802e-02 
  4.178899249922e-02 
  3.891372748455e-02 
  3.535607312880e-02 
  3.097120215418e-02 
  2.595674987250e-02 
  3.987808259474e-02 
  3.655038273998e-02 
  3.240122684744e-02 
  2.725243581551e-02 
  3.803615227378e-02 
  3.428198363575e-02 
  2.952728937544e-02 
  3.632991543408e-02 
  3.211149905126e-02 
  3.459646657873e-02 
  5.102658512069e-02 
  5.110094641605e-02 
  5.074187750707e-02 
  4.988527549664e-02 
  4.842771179805e-02 
  4.624964009756e-02 
  4.992835985741e-02 
  4.947134272823e-02 
  4.856460835965e-02 
  4.714218905722e-02 
  4.515454778316e-02 
  4.860604668283e-02 
  4.764457011431e-02 
  4.618039971262e-02 
  4.416318315114e-02 
  4.710261720954e-02 
  4.563187582195e-02 
  4.359173484888e-02 
  4.544363140458e-02 
  4.344215379634e-02 
  4.366416112639e-02 
  5.241934486127e-02 
  4.252669033656e-02 
  4.418026551750e-02 
  4.516725621519e-02 
  4.846830524077e-02 
  4.404500931154e-04 
  4.624503771126e-02 
  4.623044776630e-02 
  4.525845119186e-02 
  4.565644693590e-02 
  4.246483471731e-02 
  4.608901778164e-02 
  4.644893302738e-02 
  4.507477443846e-02 
  4.605135297108e-02 
  4.605305346619e-02 
  4.567903328995e-02 
  4.434423438818e-02 
  4.648755674053e-02 
  4.421695752694e-02 
  4.809618843214e-02 
  3.459683075443e-02 
  3.733034706863e-02 
  3.962649670156e-02 
  4.163589459502e-02 
  4.342393384805e-02 
  4.499739536793e-02 
  3.632867657212e-02 
  3.879317956020e-02 
  4.095752723294e-02 
  4.286007406345e-02 
  4.452710378371e-02 
  3.803590415376e-02 
  4.036444929126e-02 
  4.238922749964e-02 
  4.413651365969e-02 
  3.987784165462e-02 
  4.202262873270e-02 
  4.385451113337e-02 
  4.178750085207e-02 
  4.368716366450e-02 
  4.366484036794e-02 
  4.700085382797e-02 
  4.560764837490e-02 
  4.623570066068e-02 
  4.635504332175e-02 
  4.639531518173e-02 
  4.801277742560e-02 
  4.599616751800e-02 
  4.602284415199e-02 
  4.630979550025e-02 
  4.624632875720e-02 
  4.644076073188e-02 
  4.609597666179e-02 
  4.625435939266e-02 
  4.632126357570e-02 
  4.620327121704e-02 
  4.654093513669e-02 
  4.631578095248e-02 
  4.628460038689e-02 
  4.651068039261e-02 
  4.640959155607e-02 
  4.601648127656e-02 
  4.448191987075e-02 
  4.600360861606e-02 
  4.741511097342e-02 
  4.873879974380e-02 
  4.997444630270e-02 
  5.112961730165e-02 
  4.579919105095e-02 
  4.724393071582e-02 
  4.860892291445e-02 
  4.989603316219e-02 
  5.110620573311e-02 
  4.682528069077e-02 
  4.820002691375e-02 
  4.951620074711e-02 
  5.077581659361e-02 
  4.777277215877e-02 
  4.908743027051e-02 
  5.036988028789e-02 
  4.868501975030e-02 
  4.995928587060e-02 
  4.957484726181e-02 
  7.092991546048e-07 
  2.016391055355e-02 
  3.208968814905e-02 
  3.872058119130e-02 
  4.235356337541e-02 
  4.448238369306e-02 
  1.905450826930e-02 
  3.049416906175e-02 
  3.698353193925e-02 
  4.063479151126e-02 
  4.286457313489e-02 
  2.869740455444e-02 
  3.505183625989e-02 
  3.874921562788e-02 
  4.109357909900e-02 
  3.287559824687e-02 
  3.665206692562e-02 
  3.915192092034e-02 
  3.429164225349e-02 
  3.700074895295e-02 
  3.459668917572e-02 
  4.500064186054e-02 
  4.590975103673e-02 
  4.681407429800e-02 
  4.772567290331e-02 
  4.864191291505e-02 
  4.957422218520e-02 
  4.587617429171e-02 
  4.667890432430e-02 
  4.750220548352e-02 
  4.835021907403e-02 
  4.922400286621e-02 
  4.667280223476e-02 
  4.738198959872e-02 
  4.812911148755e-02 
  4.892056866361e-02 
  4.738005571125e-02 
  4.799845093372e-02 
  4.867530916772e-02 
  4.797817386259e-02 
  4.850785276561e-02 
  4.843568625342e-02 
  4.957398172150e-02 
  4.864207998914e-02 
  4.772564142774e-02 
  4.681417004458e-02 
  4.590977343282e-02 
  4.500095095077e-02 
  4.868551877387e-02 
  4.772684084567e-02 
  4.675880226132e-02 
  4.577931694628e-02 
  4.478398585204e-02 
  4.777266004463e-02 
  4.676379524607e-02 
  4.572983456481e-02 
  4.466696796191e-02 
  4.682558044880e-02 
  4.575636694655e-02 
  4.464527160590e-02 
  4.579935046419e-02 
  4.466141895061e-02 
  4.448279212709e-02 
  5.240206934270e-02 
  5.129795827451e-02 
  5.039472591779e-02 
  4.964282134333e-02 
  4.900344284770e-02 
  4.843578930244e-02 
  5.215117668025e-02 
  5.105705665410e-02 
  5.010907618479e-02 
  4.926926925238e-02 
  4.850778119830e-02 
  5.168475363261e-02 
  5.059453465336e-02 
  4.960004701111e-02 
  4.867527606943e-02 
  5.106915175487e-02 
  4.996806125213e-02 
  4.892052171450e-02 
  5.035168579130e-02 
  4.922388073196e-02 
  4.957464715604e-02 
  4.499957764006e-02 
  4.587621927495e-02 
  4.667273932644e-02 
  4.738000766288e-02 
  4.797833831237e-02 
  4.843537358070e-02 
  4.452666987178e-02 
  4.548336125211e-02 
  4.635583493641e-02 
  4.712486899952e-02 
  4.777096144799e-02 
  4.413681651991e-02 
  4.519057586644e-02 
  4.614584312182e-02 
  4.698612048337e-02 
  4.385380164413e-02 
  4.501037530858e-02 
  4.605714167642e-02 
  4.368720110362e-02 
  4.495685605677e-02 
  4.366372744789e-02 
  5.240161616764e-02 
  5.215117191230e-02 
  5.168471297776e-02 
  5.106919809917e-02 
  5.035151957479e-02 
  4.957558475681e-02 
  5.332393178540e-02 
  5.287546616383e-02 
  5.227508001304e-02 
  5.157686465915e-02 
  5.081682166414e-02 
  5.421056044088e-02 
  5.357404552250e-02 
  5.284948000273e-02 
  5.207921541829e-02 
  5.502918798540e-02 
  5.422414687378e-02 
  5.339308290525e-02 
  5.576054303848e-02 
  5.480974935173e-02 
  5.638537548200e-02 
  4.448273577896e-02 
  4.466180515425e-02 
  4.464554737670e-02 
  4.466701012689e-02 
  4.478400985173e-02 
  4.499963705321e-02 
  4.286482339743e-02 
  4.304564561840e-02 
  4.308088570646e-02 
  4.318892508102e-02 
  4.342363539104e-02 
  4.109371462175e-02 
  4.130403527053e-02 
  4.141358787974e-02 
  4.163603455623e-02 
  3.915211776545e-02 
  3.940835929055e-02 
  3.962591667961e-02 
  3.700090991107e-02 
  3.733004455982e-02 
  3.459669740538e-02 
 -2.899854976315e-08 
 -1.922037228245e-07 
 -1.210745452310e-07 
 -2.325994793450e-07 
 -1.823677909559e-07 
 -7.984089684091e-07 
  2.819932399575e-02 
  2.811868853055e-02 
  2.789406926326e-02 
  2.755688312100e-02 
  2.714428498793e-02 
  4.360975878929e-02 
  4.345062193561e-02 
  4.307076783223e-02 
  4.252637986398e-02 
  5.124552808825e-02 
  5.099987062507e-02 
  5.050834527723e-02 
  5.469175872791e-02 
  5.434874408411e-02 
  5.614148938961e-02 
  5.102573310516e-02 
  4.992700919645e-02 
  4.860574852851e-02 
  4.710311829160e-02 
  4.544389813321e-02 
  4.366379904167e-02 
  4.989536064032e-02 
  4.891860678955e-02 
  4.775698117414e-02 
  4.642779330392e-02 
  4.495674169679e-02 
  4.907963430097e-02 
  4.824039127487e-02 
  4.722463208894e-02 
  4.605728505681e-02 
  4.857119586663e-02 
  4.786538911347e-02 
  4.698630239290e-02 
  4.837063729011e-02 
  4.777097050547e-02 
  4.843505615795e-02 
  5.946038888627e-02 
  5.823420662127e-02 
  5.620806345207e-02 
  5.417598365617e-02 
  5.243225326339e-02 
  5.102780006344e-02 
  6.014788338845e-02 
  5.794992285469e-02 
  5.567592163988e-02 
  5.365445419208e-02 
  5.193298987936e-02 
  5.943385703233e-02 
  5.693359558332e-02 
  5.465662559249e-02 
  5.266195877419e-02 
  5.797497645164e-02 
  5.546529406736e-02 
  5.322272895003e-02 
  5.610503565893e-02 
  5.363633068137e-02 
  5.393124809904e-02 
  5.946108260108e-02 
  5.734592585495e-02 
  5.496809422542e-02 
  5.232685161297e-02 
  4.942025118406e-02 
  4.624836652283e-02 
  5.823417304525e-02 
  5.616094863867e-02 
  5.383324639023e-02 
  5.125691660827e-02 
  4.842748508250e-02 
  5.620901514362e-02 
  5.433057300291e-02 
  5.221564930517e-02 
  4.988463635135e-02 
  5.417515966368e-02 
  5.256349891955e-02 
  5.074311754053e-02 
  5.243174155734e-02 
  5.110115169214e-02 
  5.102820373020e-02 
  5.946082504785e-02 
  6.014707703953e-02 
  5.943341416041e-02 
  5.797523117479e-02 
  5.610551675304e-02 
  5.393058674232e-02 
  6.131163442066e-02 
  6.168792441228e-02 
  6.058698853794e-02 
  5.874954601545e-02 
  5.655990894682e-02 
  6.289681041075e-02 
  6.298091910623e-02 
  6.152413636419e-02 
  5.934695878426e-02 
  6.421700021779e-02 
  6.402133805494e-02 
  6.223853185730e-02 
  6.527417948737e-02 
  6.481391655726e-02 
  6.606616125542e-02 
  5.393238690629e-02 
  5.363542322519e-02 
  5.322255691563e-02 
  5.266273882864e-02 
  5.193410003613e-02 
  5.102528750244e-02 
  5.173483773503e-02 
  5.163541660940e-02 
  5.146212229695e-02 
  5.116646273141e-02 
  5.070733135613e-02 
  4.965068555594e-02 
  4.980526244142e-02 
  4.991262498774e-02 
  4.990735110057e-02 
  4.765747616770e-02 
  4.814001996542e-02 
  4.858735843190e-02 
  4.575683681878e-02 
  4.665470502770e-02 
  4.397476318774e-02 
  4.240716551682e-02 
  4.510697208727e-02 
  4.759315026570e-02 
  4.987084334222e-02 
  5.197343714126e-02 
  5.393256564749e-02 
  4.221549917699e-02 
  4.503125714776e-02 
  4.751773728236e-02 
  4.973808539626e-02 
  5.173468678546e-02 
  4.230467153259e-02 
  4.512431196905e-02 
  4.754447307683e-02 
  4.965059222687e-02 
  4.264941486282e-02 
  4.537437152403e-02 
  4.765763740887e-02 
  4.321896459021e-02 
  4.575687980306e-02 
  4.397477995818e-02 
  5.393276012710e-02 
  5.413392300191e-02 
  5.429232306847e-02 
  5.439229461718e-02 
  5.443947231014e-02 
  5.443503204992e-02 
  5.655963644995e-02 
  5.691024038970e-02 
  5.712867015216e-02 
  5.722144696650e-02 
  5.720018745663e-02 
  5.934820223431e-02 
  5.980412763569e-02 
  6.006512081064e-02 
  6.014126717359e-02 
  6.223762362696e-02 
  6.276106275331e-02 
  6.304659116113e-02 
  6.481436332100e-02 
  6.537305266348e-02 
  6.606389721456e-02 
  5.102377891605e-02 
  5.011929850453e-02 
  4.932288416413e-02 
  4.865969604517e-02 
  4.816234864319e-02 
  4.793545649987e-02 
  5.070769124257e-02 
  4.959543334040e-02 
  4.858608438950e-02 
  4.769230914696e-02 
  4.698096934949e-02 
  4.990700269552e-02 
  4.855485545458e-02 
  4.726227240179e-02 
  4.605348605735e-02 
  4.858712201335e-02 
  4.690569489456e-02 
  4.520592701891e-02 
  4.665465380621e-02 
  4.449743762376e-02 
  4.397502854575e-02 
  4.889211406828e-02 
  4.667832483754e-02 
  4.584320832166e-02 
  4.602636794352e-02 
  4.713526011486e-02 
  4.783168217894e-02 
  4.622603190660e-02 
  4.628612654669e-02 
  4.631996330705e-02 
  4.714449506176e-02 
  4.856837701523e-02 
  4.613247804439e-02 
  4.586721908832e-02 
  4.565516747962e-02 
  4.528258180094e-02 
  4.533581666977e-02 
  4.604477722909e-02 
  4.497892683014e-02 
  3.754063298026e-02 
  4.311568429388e-02 
  2.012592185317e-04 
  4.160844688679e-02 
  4.371282265106e-02 
  4.524818711545e-02 
  4.640713977246e-02 
  4.727985311096e-02 
  4.793991829181e-02 
  4.375528930342e-02 
  4.539005006557e-02 
  4.656181287906e-02 
  4.743115904077e-02 
  4.806429549968e-02 
  4.605949442892e-02 
  4.718720218495e-02 
  4.796364948853e-02 
  4.852070362912e-02 
  4.844773763455e-02 
  4.904704184870e-02 
  4.941165225415e-02 
  5.083786249419e-02 
  5.090845426859e-02 
  5.315195240211e-02 
  4.793517825338e-02 
  4.816238391877e-02 
  4.865960650163e-02 
  4.932310950558e-02 
  5.011926755969e-02 
  5.102427357720e-02 
  4.866351893380e-02 
  4.866888118265e-02 
  4.891840079923e-02 
  4.934081872192e-02 
  4.989516721680e-02 
  4.903358156902e-02 
  4.884666170150e-02 
  4.888375790761e-02 
  4.907909160044e-02 
  4.908981919892e-02 
  4.873791701317e-02 
  4.857152208411e-02 
  4.888246936944e-02 
  4.837046837721e-02 
  4.843567033964e-02 
  1.700820707418e-02 
  2.096337838812e-02 
  2.441987929756e-02 
  2.742468719700e-02 
  3.004770723887e-02 
  3.236299579923e-02 
  1.855017145997e-02 
  2.238231475964e-02 
  2.569941961237e-02 
  2.856115019675e-02 
  3.103282998543e-02 
  2.051467193511e-02 
  2.423169445674e-02 
  2.735105228661e-02 
  3.000758209977e-02 
  2.294836066771e-02 
  2.647596000036e-02 
  2.934146894036e-02 
  2.584606367978e-02 
  2.907997916600e-02 
  2.913260408928e-02 
  3.235994378576e-02 
  3.553113298575e-02 
  3.817137441512e-02 
  4.039570946640e-02 
  4.230476651884e-02 
  4.397617121587e-02 
  3.359267392703e-02 
  3.652509201592e-02 
  3.894660755637e-02 
  4.099030829551e-02 
  4.274049405818e-02 
  3.521462415812e-02 
  3.779744738246e-02 
  3.993498489098e-02 
  4.174885726190e-02 
  3.715267027387e-02 
  3.930881403354e-02 
  4.110494877733e-02 
  3.931318274708e-02 
  4.099869235435e-02 
  4.161005188427e-02 
  4.160658989161e-02 
  4.018780131993e-02 
  3.837934088720e-02 
  3.609116114234e-02 
  3.310106352365e-02 
  2.913336964542e-02 
  3.931235735267e-02 
  3.750051961306e-02 
  3.528703843231e-02 
  3.253904366849e-02 
  2.908000378887e-02 
  3.715262061265e-02 
  3.501493796581e-02 
  3.244703571575e-02 
  2.934132459838e-02 
  3.521433164816e-02 
  3.283011917884e-02 
  3.000730791839e-02 
  3.359197226968e-02 
  3.103302340295e-02 
  3.236257915262e-02 
  3.235881300410e-02 
  3.370559706816e-02 
  3.563384032685e-02 
  3.784019853027e-02 
  4.013262533229e-02 
  4.240632695345e-02 
  3.553144923583e-02 
  3.667575413138e-02 
  3.830607848803e-02 
  4.020423614731e-02 
  4.221522510637e-02 
  3.817143020448e-02 
  3.918464386063e-02 
  4.061994395970e-02 
  4.230420296802e-02 
  4.039551473547e-02 
  4.134039572593e-02 
  4.264918784551e-02 
  4.230492152468e-02 
  4.321902401857e-02 
  4.397492879792e-02 
  5.240208072618e-02 
  5.282819786546e-02 
  5.316242381690e-02 
  5.338523292888e-02 
  5.343762322518e-02 
  5.315283758530e-02 
  5.156916859808e-02 
  5.172844093398e-02 
  5.171640284624e-02 
  5.147588191309e-02 
  5.090830813609e-02 
  5.066482599851e-02 
  5.053166772972e-02 
  5.014323316990e-02 
  4.941189395792e-02 
  4.972889011097e-02 
  4.929187885880e-02 
  4.852050542321e-02 
  4.880273157624e-02 
  4.806440311474e-02 
  4.793925714161e-02 
  4.161137600211e-02 
  4.099835155574e-02 
  4.110526245552e-02 
  4.174874101317e-02 
  4.274061781487e-02 
  4.397575497700e-02 
  4.371239408847e-02 
  4.311989799904e-02 
  4.316177452211e-02 
  4.366336117971e-02 
  4.449816609897e-02 
  4.524857374727e-02 
  4.475191833009e-02 
  4.477799482899e-02 
  4.520667435330e-02 
  4.640697732260e-02 
  4.601084755539e-02 
  4.605437053998e-02 
  4.728011398960e-02 
  4.698134587400e-02 
  4.793775932873e-02 
  5.240260475181e-02 
  5.156887426708e-02 
  5.066451219070e-02 
  4.972828885497e-02 
  4.880234647433e-02 
  4.793667797216e-02 
  5.129791752061e-02 
  5.064215456240e-02 
  4.996441944835e-02 
  4.929314322163e-02 
  4.866332726368e-02 
  5.039487905229e-02 
  4.992034816711e-02 
  4.945880148608e-02 
  4.903372147860e-02 
  4.964272304610e-02 
  4.934711643688e-02 
  4.908977527306e-02 
  4.900358016527e-02 
  4.888287603827e-02 
  4.843532286990e-02 
  3.236112343471e-02 
  3.004823030329e-02 
  2.742445744276e-02 
  2.441953190107e-02 
  2.096341041891e-02 
  1.700928453450e-02 
  3.081494441769e-02 
  2.830488943638e-02 
  2.544721233836e-02 
  2.219620070521e-02 
  1.852133345874e-02 
  2.964778478691e-02 
  2.700371840806e-02 
  2.401528795367e-02 
  2.064616209733e-02 
  2.890499375596e-02 
  2.621867365747e-02 
  2.321200508577e-02 
  2.861689666790e-02 
  2.598257650585e-02 
  2.877369029014e-02 
  5.638650665274e-02 
  5.480979222044e-02 
  5.339344132181e-02 
  5.207910423092e-02 
  5.081702779245e-02 
  4.957504910876e-02 
  5.522189292880e-02 
  5.381908383997e-02 
  5.249677917243e-02 
  5.122039978131e-02 
  4.995968622039e-02 
  5.413956624435e-02 
  5.285417111121e-02 
  5.160624187494e-02 
  5.036983587802e-02 
  5.317251245437e-02 
  5.198247231987e-02 
  5.077633737077e-02 
  5.231818588243e-02 
  5.110624404550e-02 
  5.113340403324e-02 
  5.250689915806e-02 
  4.612104426497e-02 
  4.606416881584e-02 
  4.603959074749e-02 
  4.645195599776e-02 
  4.823830342465e-02 
  4.736349551521e-02 
  4.612619137405e-02 
  4.623953195111e-02 
  4.630031455585e-02 
  4.643199070280e-02 
  4.613834624329e-02 
  4.642462851505e-02 
  4.631153036408e-02 
  4.664871110300e-02 
  4.576588221515e-02 
  4.601746623925e-02 
  4.881617468160e-02 
  4.675012705104e-02 
  4.887309349561e-02 
  4.841418757543e-02 
  5.925187833080e-02 
  5.827611419764e-02 
  5.745709665669e-02 
  5.678607932895e-02 
  5.620410061475e-02 
  5.532232994461e-02 
  5.974620329867e-02 
  5.868906106378e-02 
  5.781049552430e-02 
  5.710403677627e-02 
  5.647918244012e-02 
  6.012428427454e-02 
  5.899662416127e-02 
  5.807714419211e-02 
  5.734315615132e-02 
  6.037175618799e-02 
  5.919662241355e-02 
  5.825387728179e-02 
  6.048750810792e-02 
  5.928834529584e-02 
  6.047181162793e-02 
  5.925121832276e-02 
  5.890686110036e-02 
  5.844225734796e-02 
  5.785916423504e-02 
  5.716639359308e-02 
  5.638547402809e-02 
  5.733502925671e-02 
  5.692900558409e-02 
  5.643676251620e-02 
  5.586585656339e-02 
  5.522194664201e-02 
  5.569093034834e-02 
  5.522859949038e-02 
  5.470960962009e-02 
  5.413935849386e-02 
  5.423571044155e-02 
  5.372865570538e-02 
  5.317254980827e-02 
  5.283855272514e-02 
  5.231788619775e-02 
  5.113440895862e-02 
  5.240161481709e-02 
  5.367930461060e-02 
  5.528694800896e-02 
  5.736823183580e-02 
  6.008054258085e-02 
  6.356216766755e-02 
  5.282793829305e-02 
  5.423548561972e-02 
  5.608973785343e-02 
  5.856708981285e-02 
  6.180311444563e-02 
  5.316203761441e-02 
  5.475031384066e-02 
  5.692253975410e-02 
  5.983811992617e-02 
  5.338499222921e-02 
  5.519591135829e-02 
  5.770287250209e-02 
  5.343769400298e-02 
  5.545262164786e-02 
  5.315135946616e-02 
  6.356247164078e-02 
  6.008059534348e-02 
  5.736834453656e-02 
  5.528700206314e-02 
  5.367938604047e-02 
  5.240147107221e-02 
  6.181376494309e-02 
  5.892263908343e-02 
  5.663095781697e-02 
  5.480763247673e-02 
  5.332349319729e-02 
  6.020568429451e-02 
  5.780817252356e-02 
  5.584343789612e-02 
  5.421016573312e-02 
  5.878315091702e-02 
  5.675591280671e-02 
  5.502854447055e-02 
  5.751893523591e-02 
  5.575979228398e-02 
  5.638381669535e-02 
  7.050260663571e-02 
  6.964230588705e-02 
  6.849638985190e-02 
  6.707893893481e-02 
  6.541711498240e-02 
  6.356491161758e-02 
  6.648170082103e-02 
  6.558804508782e-02 
  6.449106331075e-02 
  6.322031667450e-02 
  6.181351623913e-02 
  6.314824110249e-02 
  6.228533321614e-02 
  6.129680689787e-02 
  6.020601343300e-02 
  6.044690210600e-02 
  5.965364077540e-02 
  5.878284650845e-02 
  5.823944698794e-02 
  5.751885221871e-02 
  5.638250258424e-02 
  6.098988545309e-02 
  6.083069348679e-02 
  5.919562006009e-02 