# vtk DataFile Version 2
NuDG++ 2D simulation
ASCII
DATASET UNSTRUCTURED_GRID

POINTS 7854 double
 -1.656250060000e-01  -2.000000030000e-01  0.0
 -1.725000054000e-01  -1.908888817000e-01  0.0
 -1.793750048000e-01  -1.817777604000e-01  0.0
 -1.862500042000e-01  -1.726666391000e-01  0.0
 -1.931250036000e-01  -1.635555178000e-01  0.0
 -2.000000030000e-01  -1.544443965000e-01  0.0
 -1.725000054000e-01  -2.000000030000e-01  0.0
 -1.793750048000e-01  -1.908888817000e-01  0.0
 -1.862500042000e-01  -1.817777604000e-01  0.0
 -1.931250036000e-01  -1.726666391000e-01  0.0
 -2.000000030000e-01  -1.635555178000e-01  0.0
 -1.793750048000e-01  -2.000000030000e-01  0.0
 -1.862500042000e-01  -1.908888817000e-01  0.0
 -1.931250036000e-01  -1.817777604000e-01  0.0
 -2.000000030000e-01  -1.726666391000e-01  0.0
 -1.862500042000e-01  -2.000000030000e-01  0.0
 -1.931250036000e-01  -1.908888817000e-01  0.0
 -2.000000030000e-01  -1.817777604000e-01  0.0
 -1.931250036000e-01  -2.000000030000e-01  0.0
 -2.000000030000e-01  -1.908888817000e-01  0.0
 -2.000000030000e-01  -2.000000030000e-01  0.0
 -6.428571790000e-02  -1.700000018000e-01  0.0
 -7.080357372400e-02  -1.760000020400e-01  0.0
 -7.732142954800e-02  -1.820000022800e-01  0.0
 -8.383928537200e-02  -1.880000025200e-01  0.0
 -9.035714119600e-02  -1.940000027600e-01  0.0
 -9.687499702000e-02  -2.000000030000e-01  0.0
 -6.392857432000e-02  -1.760000020400e-01  0.0
 -7.044643014400e-02  -1.820000022800e-01  0.0
 -7.696428596800e-02  -1.880000025200e-01  0.0
 -8.348214179200e-02  -1.940000027600e-01  0.0
 -8.999999761600e-02  -2.000000030000e-01  0.0
 -6.357143074000e-02  -1.820000022800e-01  0.0
 -7.008928656400e-02  -1.880000025200e-01  0.0
 -7.660714238800e-02  -1.940000027600e-01  0.0
 -8.312499821200e-02  -2.000000030000e-01  0.0
 -6.321428716000e-02  -1.880000025200e-01  0.0
 -6.973214298400e-02  -1.940000027600e-01  0.0
 -7.624999880800e-02  -2.000000030000e-01  0.0
 -6.285714358000e-02  -1.940000027600e-01  0.0
 -6.937499940400e-02  -2.000000030000e-01  0.0
 -6.250000000000e-02  -2.000000030000e-01  0.0
 -2.000000030000e-01  -1.544443965000e-01  0.0
 -1.900000036000e-01  -1.478412374800e-01  0.0
 -1.800000042000e-01  -1.412380784600e-01  0.0
 -1.700000048000e-01  -1.346349194400e-01  0.0
 -1.600000054000e-01  -1.280317604200e-01  0.0
 -1.500000060000e-01  -1.214286014000e-01  0.0
 -2.000000030000e-01  -1.453332975600e-01  0.0
 -1.900000036000e-01  -1.387301385400e-01  0.0
 -1.800000042000e-01  -1.321269795200e-01  0.0
 -1.700000048000e-01  -1.255238205000e-01  0.0
 -1.600000054000e-01  -1.189206614800e-01  0.0
 -2.000000030000e-01  -1.362221986200e-01  0.0
 -1.900000036000e-01  -1.296190396000e-01  0.0
 -1.800000042000e-01  -1.230158805800e-01  0.0
 -1.700000048000e-01  -1.164127215600e-01  0.0
 -2.000000030000e-01  -1.271110996800e-01  0.0
 -1.900000036000e-01  -1.205079406600e-01  0.0
 -1.800000042000e-01  -1.139047816400e-01  0.0
 -2.000000030000e-01  -1.180000007400e-01  0.0
 -1.900000036000e-01  -1.113968417200e-01  0.0
 -2.000000030000e-01  -1.088889018000e-01  0.0
 -1.500000060000e-01  -1.214286014000e-01  0.0
 -1.600000054000e-01  -1.280317604200e-01  0.0
 -1.700000048000e-01  -1.346349194400e-01  0.0
 -1.800000042000e-01  -1.412380784600e-01  0.0
 -1.900000036000e-01  -1.478412374800e-01  0.0
 -2.000000030000e-01  -1.544443965000e-01  0.0
 -1.500000060000e-01  -1.311428814800e-01  0.0
 -1.600000054000e-01  -1.377460405000e-01  0.0
 -1.700000048000e-01  -1.443491995200e-01  0.0
 -1.800000042000e-01  -1.509523585400e-01  0.0
 -1.900000036000e-01  -1.575555175600e-01  0.0
 -1.500000060000e-01  -1.408571615600e-01  0.0
 -1.600000054000e-01  -1.474603205800e-01  0.0
 -1.700000048000e-01  -1.540634796000e-01  0.0
 -1.800000042000e-01  -1.606666386200e-01  0.0
 -1.500000060000e-01  -1.505714416400e-01  0.0
 -1.600000054000e-01  -1.571746006600e-01  0.0
 -1.700000048000e-01  -1.637777596800e-01  0.0
 -1.500000060000e-01  -1.602857217200e-01  0.0
 -1.600000054000e-01  -1.668888807400e-01  0.0
 -1.500000060000e-01  -1.700000018000e-01  0.0
 -1.500000060000e-01  -7.285714149000e-02  0.0
 -1.600000054000e-01  -8.006349355200e-02  0.0
 -1.700000048000e-01  -8.726984561400e-02  0.0
 -1.800000042000e-01  -9.447619767600e-02  0.0
 -1.900000036000e-01  -1.016825497380e-01  0.0
 -2.000000030000e-01  -1.088889018000e-01  0.0
 -1.500000060000e-01  -8.257143347200e-02  0.0
 -1.600000054000e-01  -8.977778553400e-02  0.0
 -1.700000048000e-01  -9.698413759600e-02  0.0
 -1.800000042000e-01  -1.041904896580e-01  0.0
 -1.900000036000e-01  -1.113968417200e-01  0.0
 -1.500000060000e-01  -9.228572545400e-02  0.0
 -1.600000054000e-01  -9.949207751600e-02  0.0
 -1.700000048000e-01  -1.066984295780e-01  0.0
 -1.800000042000e-01  -1.139047816400e-01  0.0
 -1.500000060000e-01  -1.020000174360e-01  0.0
 -1.600000054000e-01  -1.092063694980e-01  0.0
 -1.700000048000e-01  -1.164127215600e-01  0.0
 -1.500000060000e-01  -1.117143094180e-01  0.0
 -1.600000054000e-01  -1.189206614800e-01  0.0
 -1.500000060000e-01  -1.214286014000e-01  0.0
  1.832975030000e+00  -4.625000060000e-02  0.0
  1.841380024000e+00  -7.700000108000e-02  0.0
  1.849785018000e+00  -1.077500015600e-01  0.0
  1.858190012000e+00  -1.385000020400e-01  0.0
  1.866595006000e+00  -1.692500025200e-01  0.0
  1.875000000000e+00  -2.000000030000e-01  0.0
  1.866380024000e+00  -5.649999976400e-02  0.0
  1.874785018000e+00  -8.725000024400e-02  0.0
  1.883190012000e+00  -1.180000007240e-01  0.0
  1.891595006000e+00  -1.487500012040e-01  0.0
  1.900000000000e+00  -1.795000016840e-01  0.0
  1.899785018000e+00  -6.674999892800e-02  0.0
  1.908190012000e+00  -9.749999940800e-02  0.0
  1.916595006000e+00  -1.282499998880e-01  0.0
  1.925000000000e+00  -1.590000003680e-01  0.0
  1.933190012000e+00  -7.699999809200e-02  0.0
  1.941595006000e+00  -1.077499985720e-01  0.0
  1.950000000000e+00  -1.384999990520e-01  0.0
  1.966595006000e+00  -8.724999725600e-02  0.0
  1.975000000000e+00  -1.179999977360e-01  0.0
  2.000000000000e+00  -9.749999642000e-02  0.0
 -1.500000060000e-01  -1.700000018000e-01  0.0
 -1.444000050800e-01  -1.630000025200e-01  0.0
 -1.388000041600e-01  -1.560000032400e-01  0.0
 -1.332000032400e-01  -1.490000039600e-01  0.0
 -1.276000023200e-01  -1.420000046800e-01  0.0
 -1.220000014000e-01  -1.350000054000e-01  0.0
 -1.500000060000e-01  -1.602857217200e-01  0.0
 -1.444000050800e-01  -1.532857224400e-01  0.0
 -1.388000041600e-01  -1.462857231600e-01  0.0
 -1.332000032400e-01  -1.392857238800e-01  0.0
 -1.276000023200e-01  -1.322857246000e-01  0.0
 -1.500000060000e-01  -1.505714416400e-01  0.0
 -1.444000050800e-01  -1.435714423600e-01  0.0
 -1.388000041600e-01  -1.365714430800e-01  0.0
 -1.332000032400e-01  -1.295714438000e-01  0.0
 -1.500000060000e-01  -1.408571615600e-01  0.0
 -1.444000050800e-01  -1.338571622800e-01  0.0
 -1.388000041600e-01  -1.268571630000e-01  0.0
 -1.500000060000e-01  -1.311428814800e-01  0.0
 -1.444000050800e-01  -1.241428822000e-01  0.0
 -1.500000060000e-01  -1.214286014000e-01  0.0
  2.849999964000e-01  -2.333333530000e-02  0.0
  2.844999968800e-01  -4.666666836000e-02  0.0
  2.839999973600e-01  -7.000000142000e-02  0.0
  2.834999978400e-01  -9.333333448000e-02  0.0
  2.829999983200e-01  -1.166666675400e-01  0.0
  2.824999988000e-01  -1.400000006000e-01  0.0
  2.979999959200e-01  -3.266666830000e-02  0.0
  2.974999964000e-01  -5.600000136000e-02  0.0
  2.969999968800e-01  -7.933333442000e-02  0.0
  2.964999973600e-01  -1.026666674800e-01  0.0
  2.959999978400e-01  -1.260000005400e-01  0.0
  3.109999954400e-01  -4.200000130000e-02  0.0
  3.104999959200e-01  -6.533333436000e-02  0.0
  3.099999964000e-01  -8.866666742000e-02  0.0
  3.094999968800e-01  -1.120000004800e-01  0.0
  3.239999949600e-01  -5.133333430000e-02  0.0
  3.234999954400e-01  -7.466666736000e-02  0.0
  3.229999959200e-01  -9.800000042000e-02  0.0
  3.369999944800e-01  -6.066666730000e-02  0.0
  3.364999949600e-01  -8.400000036000e-02  0.0
  3.499999940000e-01  -7.000000030000e-02  0.0
 -1.071429029000e-01  -1.700000018000e-01  0.0
 -9.857146590000e-02  -1.700000018000e-01  0.0
 -9.000002890000e-02  -1.700000018000e-01  0.0
 -8.142859190000e-02  -1.700000018000e-01  0.0
 -7.285715490000e-02  -1.700000018000e-01  0.0
 -6.428571790000e-02  -1.700000018000e-01  0.0
 -1.037143230360e-01  -1.630000025200e-01  0.0
 -9.514288603600e-02  -1.630000025200e-01  0.0
 -8.657144903600e-02  -1.630000025200e-01  0.0
 -7.800001203600e-02  -1.630000025200e-01  0.0
 -6.942857503600e-02  -1.630000025200e-01  0.0
 -1.002857431720e-01  -1.560000032400e-01  0.0
 -9.171430617200e-02  -1.560000032400e-01  0.0
 -8.314286917200e-02  -1.560000032400e-01  0.0
 -7.457143217200e-02  -1.560000032400e-01  0.0
 -9.685716330800e-02  -1.490000039600e-01  0.0
 -8.828572630800e-02  -1.490000039600e-01  0.0
 -7.971428930800e-02  -1.490000039600e-01  0.0
 -9.342858344400e-02  -1.420000046800e-01  0.0
 -8.485714644400e-02  -1.420000046800e-01  0.0
 -9.000000358000e-02  -1.350000054000e-01  0.0
 -1.312499940000e-01  -2.000000030000e-01  0.0
 -1.264285757800e-01  -1.940000027600e-01  0.0
 -1.216071575600e-01  -1.880000025200e-01  0.0
 -1.167857393400e-01  -1.820000022800e-01  0.0
 -1.119643211200e-01  -1.760000020400e-01  0.0
 -1.071429029000e-01  -1.700000018000e-01  0.0
 -1.349999964000e-01  -1.940000027600e-01  0.0
 -1.301785781800e-01  -1.880000025200e-01  0.0
 -1.253571599600e-01  -1.820000022800e-01  0.0
 -1.205357417400e-01  -1.760000020400e-01  0.0
 -1.157143235200e-01  -1.700000018000e-01  0.0
 -1.387499988000e-01  -1.880000025200e-01  0.0
 -1.339285805800e-01  -1.820000022800e-01  0.0
 -1.291071623600e-01  -1.760000020400e-01  0.0
 -1.242857441400e-01  -1.700000018000e-01  0.0
 -1.425000012000e-01  -1.820000022800e-01  0.0
 -1.376785829800e-01  -1.760000020400e-01  0.0
 -1.328571647600e-01  -1.700000018000e-01  0.0
 -1.462500036000e-01  -1.760000020400e-01  0.0
 -1.414285853800e-01  -1.700000018000e-01  0.0
 -1.500000060000e-01  -1.700000018000e-01  0.0
[...]
POINT_DATA 7854
SCALARS field1 double 1
LOOKUP_TABLE default
 -5.533434931394e-06 
  1.711039282343e-02 
  2.145471810760e-02 
  2.299144627844e-02 
  2.587403998346e-02 
  3.062074761278e-02 
 -2.695304383843e-06 
  1.409818059905e-02 
  1.775910998314e-02 
  2.039644464267e-02 
  2.510616325865e-02 
  2.200538682977e-06 
  1.086878525445e-02 
  1.462601291759e-02 
  1.929287581977e-02 
  5.289043290460e-06 
  8.036391608597e-03 
  1.317095673216e-02 
 -3.162867441781e-06 
  6.735248824342e-03 
  1.826588249394e-06 
  5.931985693892e-02 
  5.641702700478e-02 
  5.136463105530e-02 
  4.224601734702e-02 
  2.628466664091e-02 
 -3.925825932416e-07 
  5.745913024490e-02 
  5.238842968624e-02 
  4.316258748085e-02 
  2.690323433199e-02 
 -1.625964727843e-07 
  5.334546211487e-02 
  4.402069165311e-02 
  2.748665229848e-02 
 -1.844787275778e-07 
  4.482212069070e-02 
  2.803325467611e-02 
 -1.817320069540e-07 
  2.854127861416e-02 
 -8.043233990693e-08 
 -2.820339908984e-07 
  3.062389103590e-02 
  3.518341914682e-02 
  4.005951663676e-02 
  4.435367878174e-02 
  4.784532355825e-02 
  5.066318808059e-02 
  3.582982778003e-02 
  3.986793879149e-02 
  4.395220446822e-02 
  4.751222650907e-02 
  5.037630629815e-02 
  4.072876017447e-02 
  4.429037940137e-02 
  4.767920456017e-02 
  5.053660608067e-02 
  4.532151906546e-02 
  4.845308992465e-02 
  5.119418781074e-02 
  4.960762941596e-02 
  5.233277671638e-02 
  5.359018245519e-02 
  5.066166108057e-02 
  4.784559342030e-02 
  4.435236842672e-02 
  4.006031982427e-02 
  3.518250332936e-02 
  3.062616636058e-02 
  4.846824063171e-02 
  4.507300672771e-02 
  4.087557971403e-02 
  3.575837242764e-02 
  2.999083550423e-02 
  4.623050568287e-02 
  4.229533559295e-02 
  3.740255969540e-02 
  3.139421896072e-02 
  4.406678358228e-02 
  3.961828944449e-02 
  3.399655987724e-02 
  4.203312656997e-02 
  3.699443396369e-02 
  3.985809087257e-02 
  5.929209321605e-02 
  5.937724978266e-02 
  5.892931600775e-02 
  5.788633742202e-02 
  5.614456937078e-02 
  5.359134235588e-02 
  5.801153812874e-02 
  5.746140692540e-02 
  5.637155211515e-02 
  5.467690120100e-02 
  5.233249869505e-02 
  5.645903626182e-02 
  5.530980397899e-02 
  5.357147638015e-02 
  5.119365390675e-02 
  5.468941672789e-02 
  5.294267331230e-02 
  5.053655303278e-02 
  5.274139193252e-02 
  5.037711939840e-02 
  5.066060874150e-02 
  6.171344476155e-02 
  4.766260779698e-02 
  5.065663654031e-02 
  5.299358458668e-02 
  5.623600739777e-02 
  3.727814470354e-04 
  5.367069539960e-02 
  5.333795407289e-02 
  5.252985090885e-02 
  5.334582970484e-02 
  4.863495807486e-02 
  5.357822953558e-02 
  5.397365719164e-02 
  5.243496510585e-02 
  5.369508250880e-02 
  5.371616752557e-02 
  5.298831672068e-02 
  5.140134301174e-02 
  5.393949178036e-02 
  5.144394574214e-02 
  5.661190642385e-02 
  3.985852808154e-02 
  4.319848938676e-02 
  4.595239700915e-02 
  4.833552729205e-02 
  5.044466013828e-02 
  5.229584318797e-02 
  4.203176774882e-02 
  4.496661167094e-02 
  4.752588095729e-02 
  4.976840657745e-02 
  5.173053843819e-02 
  4.406635260334e-02 
  4.681521715598e-02 
  4.920213713186e-02 
  5.125796794087e-02 
  4.623010589099e-02 
  4.875783577762e-02 
  5.091297785715e-02 
  4.846654298444e-02 
  5.070258714375e-02 
  5.066132373940e-02 
  5.485565104364e-02 
  5.289896858092e-02 
  5.373659331246e-02 
  5.385957736582e-02 
  5.394691529637e-02 
  5.563983953977e-02 
  5.343302139986e-02 
  5.351533588055e-02 
  5.383714290844e-02 
  5.370724666181e-02 
  5.391739163886e-02 
  5.362978040882e-02 
  5.378026903921e-02 
  5.384847700646e-02 
  5.362638642732e-02 
  5.423977838889e-02 
  5.382322366686e-02 
  5.378389270777e-02 
  5.417280989217e-02 
  5.391444233582e-02 
  5.368390234096e-02 
  5.149010872954e-02 
  5.328041129668e-02 
  5.494247843782e-02 
  5.650184765715e-02 
  5.795847797339e-02 
  5.932199175523e-02 
  5.321091698151e-02 
  5.491923694533e-02 
  5.653402661118e-02 
  5.805766350181e-02 
  5.949132978590e-02 
  5.448366459554e-02 
  5.611294534823e-02 
  5.767366293748e-02 
  5.916789287847e-02 
  5.561599573158e-02 
  5.717597973199e-02 
  5.869810406362e-02 
  5.669167698217e-02 
  5.820482879384e-02 
  5.773638236092e-02 
  1.350053762857e-06 
  2.224543202226e-02 
  3.600844829056e-02 
  4.407336044733e-02 
  4.871105716718e-02 
  5.149087723859e-02 
  2.100525107961e-02 
  3.419391327211e-02 
  4.206738688768e-02 
  4.670452290444e-02 
  4.958628191796e-02 
  3.214980873400e-02 
  3.983664785191e-02 
  4.450254212403e-02 
  4.750320473024e-02 
  3.732264406714e-02 
  4.205285265632e-02 
  4.521905361287e-02 
  3.929429070598e-02 
  4.268730783695e-02 
  3.985871288592e-02 
  5.229975382361e-02 
  5.338053588179e-02 
  5.445567188579e-02 
  5.553923028244e-02 
  5.662822881631e-02 
  5.773573762550e-02 
  5.332391321900e-02 
  5.427939808186e-02 
  5.525911296673e-02 
  5.626778158909e-02 
  5.730688145440e-02 
  5.425572420965e-02 
  5.510084807498e-02 
  5.599059821501e-02 
  5.693246024879e-02 
  5.508206293626e-02 
  5.582010389359e-02 
  5.662662518514e-02 
  5.577940543514e-02 
  5.641255670965e-02 
  5.631178562534e-02 
  5.773546622681e-02 
  5.662840628191e-02 
  5.553918935150e-02 
  5.445578852126e-02 
  5.338055300648e-02 
  5.230009711809e-02 
  5.669224047859e-02 
  5.555360395599e-02 
  5.440399573742e-02 
  5.324084342175e-02 
  5.205942806987e-02 
  5.561592621391e-02 
  5.441897260358e-02 
  5.319238731132e-02 
  5.193153339294e-02 
  5.448401577078e-02 
  5.321697050684e-02 
  5.190032630487e-02 
  5.321110454366e-02 
  5.186596632869e-02 
  5.149111168461e-02 
  6.102369456251e-02 
  5.971444371047e-02 
  5.864191360457e-02 
  5.774834848984e-02 
  5.698750358836e-02 
  5.631183707886e-02 
  6.073948353662e-02 
  5.944097493450e-02 
  5.831541429900e-02 
  5.731786976440e-02 
  5.641248724585e-02 
  6.019917940822e-02 
  5.890524698970e-02 
  5.772469816379e-02 
  5.662658380724e-02 
  5.948215156980e-02 
  5.817549997030e-02 
  5.693239564918e-02 
  5.864467179885e-02 
  5.730674099034e-02 
  5.773617592800e-02 
  5.229844527977e-02 
  5.332395621921e-02 
  5.425566129808e-02 
  5.508201423731e-02 
  5.577954873720e-02 
  5.631153472315e-02 
  5.173000308872e-02 
  5.284873866956e-02 
  5.386978650797e-02 
  5.476907020101e-02 
  5.552392366787e-02 
  5.125834792757e-02 
  5.249132480387e-02 
  5.360941072080e-02 
  5.459272992577e-02 
  5.091221283812e-02 
  5.226580089601e-02 
  5.349085308157e-02 
  5.070264239624e-02 
  5.218793139721e-02 
  5.066002688672e-02 
  6.102321898652e-02 
  6.073949277990e-02 
  6.019914748777e-02 
  5.948220326988e-02 
  5.864449241436e-02 
  5.773718159077e-02 
  6.212606265081e-02 
  6.160741872915e-02 
  6.090841409315e-02 
  6.009327333331e-02 
  5.920508734072e-02 
  6.318643735147e-02 
  6.244495658832e-02 
  6.159876281375e-02 
  6.069798504077e-02 
  6.416664023093e-02 
  6.322533768601e-02 
  6.225258685043e-02 
  6.504364310360e-02 
  6.392933339468e-02 
  6.579593695884e-02 
  5.149115895914e-02 
  5.186635141986e-02 
  5.190062026086e-02 
  5.193157201342e-02 
  5.205951548206e-02 
  5.229845207991e-02 
  4.958652467956e-02 
  4.995584064159e-02 
  5.004704145574e-02 
  5.017806311604e-02 
  5.044428116025e-02 
  4.750332302131e-02 
  4.789681789899e-02 
  4.807127190380e-02 
  4.833567753848e-02 
  4.521922710213e-02 
  4.565553688951e-02 
  4.595183119943e-02 
  4.268748764744e-02 
  4.319812593326e-02 
  3.985850027542e-02 
  5.459855050847e-08 
 -1.522724523944e-07 
 -7.949967553405e-08 
 -1.819841059892e-07 
 -1.437786030795e-07 
 -6.778491427695e-07 
  3.122999101254e-02 
  3.113085577407e-02 
  3.086753303713e-02 
  3.047734927728e-02 
  3.000201033418e-02 
  4.912410746099e-02 
  4.892907688396e-02 
  4.848055996052e-02 
  4.784357120443e-02 
  5.855801259080e-02 
  5.826101519386e-02 
  5.767626872307e-02 
  6.314712443326e-02 
  6.273597027176e-02 
  6.523857004474e-02 
  5.929146501666e-02 
  5.801021071165e-02 
  5.645874100918e-02 
  5.468991899055e-02 
  5.274165010631e-02 
  5.066016074192e-02 
  5.797664964622e-02 
  5.683564964069e-02 
  5.546966615326e-02 
  5.390828888625e-02 
  5.218780023742e-02 
  5.702754568974e-02 
  5.604659685817e-02 
  5.485645625355e-02 
  5.349101551908e-02 
  5.644076611798e-02 
  5.561834009799e-02 
  5.459290817622e-02 
  5.621767467449e-02 
  5.552393616370e-02 
  5.631124036845e-02 
  6.889892530499e-02 
  6.755572725189e-02 
  6.529343319895e-02 
  6.296418511354e-02 
  6.093547395897e-02 
  5.929344283298e-02 
  6.978600884805e-02 
  6.733375029847e-02 
  6.472702436708e-02 
  6.236682836993e-02 
  6.035228066573e-02 
  6.907345040619e-02 
  6.620843073348e-02 
  6.355080400507e-02 
  6.120952134795e-02 
  6.743440777734e-02 
  6.450774608392e-02 
  6.187444168376e-02 
  6.526213244019e-02 
  6.236225609813e-02 
  6.269717971065e-02 
  6.890029400780e-02 
  6.644928742461e-02 
  6.369406769208e-02 
  6.063327823916e-02 
  5.726526323413e-02 
  5.359009728822e-02 
  6.755552009164e-02 
  6.514282584155e-02 
  6.243588620763e-02 
  5.943732147122e-02 
  5.614443154399e-02 
  6.529462084751e-02 
  6.309608834376e-02 
  6.061907373490e-02 
  5.788575580911e-02 
  6.296315137647e-02 
  6.106982934302e-02 
  5.893057240614e-02 
  6.093507791567e-02 
  5.937761492290e-02 
  5.929334154564e-02 
  6.889983313654e-02 
  6.978510216957e-02 
  6.907318179258e-02 
  6.743460401492e-02 
  6.526286747954e-02 
  6.269556896642e-02 
  7.104431414540e-02 
  7.157939584306e-02 
  7.043009017768e-02 
  6.834692467655e-02 
  6.579202041223e-02 
  7.288129642126e-02 
  7.308578499056e-02 
  7.152906118438e-02 
  6.904820170301e-02 
  7.441116051012e-02 
  7.429508252543e-02 
  7.236378722774e-02 
  7.563583960467e-02 
  7.521868102877e-02 
  7.655402439898e-02 
  6.269941200109e-02 
  6.236142692299e-02 
  6.187447068308e-02 
  6.121040406375e-02 
  6.035355614702e-02 
  5.929104302387e-02 
  6.011623855065e-02 
  6.000755159938e-02 
  5.980421020025e-02 
  5.945418181981e-02 
  5.891858530345e-02 
  5.766141571696e-02 
  5.785120978371e-02 
  5.798193555929e-02 
  5.797895977380e-02 
  5.531356497460e-02 
  5.589053565335e-02 
  5.642474495390e-02 
  5.307346280793e-02 
  5.414191000629e-02 
  5.097452792430e-02 
  4.911288102768e-02 
  5.229751085950e-02 
  5.523007147836e-02 
  5.791428116963e-02 
  6.039271316794e-02 
  6.269995656955e-02 
  4.888596861946e-02 
  5.220874238650e-02 
  5.514166344684e-02 
  5.775998254598e-02 
  6.011602814445e-02 
  4.899149936716e-02 
  5.231953206865e-02 
  5.517560535734e-02 
  5.766137884430e-02 
  4.940045718200e-02 
  5.261752639272e-02 
  5.531366293652e-02 
  5.007666491643e-02 
  5.307352949256e-02 
  5.097427155957e-02 
  6.269905635107e-02 
  6.293514507914e-02 
  6.312104491073e-02 
  6.324430425209e-02 
  6.330399623717e-02 
  6.329046162264e-02 
  6.579149338712e-02 
  6.620089152758e-02 
  6.646092246535e-02 
  6.657222744058e-02 
  6.654825218655e-02 
  6.904986724091e-02 
  6.958777029525e-02 
  6.989576168748e-02 
  6.998462650432e-02 
  7.236241858844e-02 
  7.297600454600e-02 
  7.331167926545e-02 
  7.521938064889e-02 
  7.586977692235e-02 
  7.655071978985e-02 
  5.928953862146e-02 
  5.823469703598e-02 
  5.730553091908e-02 
  5.653133320699e-02 
  5.595105452340e-02 
  5.568649064100e-02 
  5.891893224084e-02 
  5.761810633914e-02 
  5.643623209781e-02 
  5.538717553376e-02 
  5.455010936965e-02 
  5.797859298124e-02 
  5.639231185846e-02 
  5.487194645616e-02 
  5.344624608205e-02 
  5.642445053246e-02 
  5.444439532331e-02 
  5.243821777111e-02 
  5.414185493171e-02 
  5.159529593520e-02 
  5.097456485491e-02 
  5.739708083039e-02 
  5.434378265845e-02 
  5.303118461202e-02 
  5.335980644194e-02 
  5.502249113850e-02 
  5.523100887224e-02 
  5.378952863943e-02 
  5.374132553533e-02 
  5.375513792659e-02 
  5.517727994518e-02 
  5.761544725098e-02 
  5.360495275823e-02 
  5.328929551029e-02 
  5.308006032511e-02 
  5.293611644433e-02 
  5.212411382504e-02 
  5.314234915571e-02 
  5.149231160260e-02 
  4.221542788443e-02 
  4.866122820604e-02 
  1.672259561800e-04 
  4.812492413656e-02 
  5.065420578052e-02 
  5.249057174835e-02 
  5.387089893489e-02 
  5.490846636543e-02 
  5.569155671703e-02 
  5.064795908865e-02 
  5.263596028492e-02 
  5.404711459302e-02 
  5.508659381460e-02 
  5.584193370178e-02 
  5.336124824756e-02 
  5.476162465782e-02 
  5.570922987729e-02 
  5.638081684899e-02 
  5.617952787396e-02 
  5.696402607520e-02 
  5.742746249646e-02 
  5.900666225453e-02 
  5.917113573059e-02 
  6.175119727593e-02 
  5.568619702052e-02 
  5.595109336450e-02 
  5.653123429677e-02 
  5.730578577600e-02 
  5.823465664006e-02 
  5.929010313663e-02 
  5.655558865488e-02 
  5.655459993163e-02 
  5.684078590897e-02 
  5.733081084494e-02 
  5.797638001462e-02 
  5.699914628340e-02 
  5.676941273391e-02 
  5.680440259525e-02 
  5.702701579367e-02 
  5.707148029311e-02 
  5.664604136122e-02 
  5.644105307617e-02 
  5.683263029750e-02 
  5.621748374916e-02 
  5.631177528290e-02 
  1.927178066080e-02 
  2.385700533736e-02 
  2.789400959047e-02 
  3.142257553571e-02 
  3.451364752389e-02 
  3.724564969925e-02 
  2.102293151685e-02 
  2.548247043526e-02 
  2.937070073248e-02 
  3.274219006255e-02 
  3.566374966692e-02 
  2.325906879081e-02 
  2.760359220529e-02 
  3.127886204087e-02 
  3.442363886311e-02 
  2.603259753773e-02 
  3.018136057684e-02 
  3.358139016580e-02 
  2.933996481053e-02 
  3.317754311155e-02 
  3.310086679324e-02 
  3.724212734815e-02 
  4.099237990776e-02 
  4.411422200449e-02 
  4.674432365254e-02 
  4.900047700960e-02 
  5.097548238029e-02 
  3.868978268472e-02 
  4.216359144151e-02 
  4.503081863746e-02 
  4.744869131424e-02 
  4.951796630561e-02 
  4.059422393092e-02 
  4.366395498364e-02 
  4.619935582111e-02 
  4.834693116462e-02 
  4.287240047404e-02 
  4.544724598751e-02 
  4.758295356300e-02 
  4.541661869176e-02 
  4.744305135787e-02 
  4.812668014039e-02 
  4.812287299402e-02 
  4.639955035487e-02 
  4.420207526515e-02 
  4.142480878696e-02 
  3.782220555103e-02 
  3.310173613664e-02 
  4.541572276509e-02 
  4.323972848415e-02 
  4.058099335821e-02 
  3.729035215611e-02 
  3.317756782395e-02 
  4.287235929665e-02 
  4.032342457583e-02 
  3.726558296690e-02 
  3.358123726418e-02 
  4.059392910913e-02 
  3.776491755837e-02 
  3.442332889495e-02 
  3.868903678487e-02 
  3.566396764071e-02 
  3.724515636950e-02 
  3.724071735341e-02 
  3.883980273973e-02 
  4.111658482412e-02 
  4.372106480643e-02 
  4.642679721538e-02 
  4.911166309053e-02 
  4.099274471515e-02 
  4.234674119582e-02 
  4.427167395748e-02 
  4.651174269461e-02 
  4.888559719495e-02 
  4.411424796000e-02 
  4.531087303350e-02 
  4.700390505705e-02 
  4.899094057903e-02 
  4.674414258611e-02 
  4.785732080127e-02 
  4.940013067813e-02 
  4.900063469103e-02 
  5.007661469109e-02 
  5.097422815806e-02 
  6.102382790542e-02 
  6.152058011670e-02 
  6.190607692903e-02 
  6.215322407903e-02 
  6.217867354696e-02 
  6.175218869057e-02 
  6.002652818134e-02 
  6.020716831341e-02 
  6.018229178293e-02 
  5.988041530163e-02 
  5.917097071452e-02 
  5.894551809205e-02 
  5.878004022927e-02 
  5.830985740882e-02 
  5.742773276650e-02 
  5.782768834820e-02 
  5.730302343586e-02 
  5.638059215261e-02 
  5.672215176759e-02 
  5.584205406733e-02 
  5.569081909725e-02 
  4.812812385937e-02 
  4.744267786615e-02 
  4.758329526587e-02 
  4.834680907127e-02 
  4.951809208274e-02 
  5.097508608887e-02 
  5.065372625643e-02 
  4.996799330159e-02 
  5.002087687126e-02 
  5.061277306894e-02 
  5.159609576544e-02 
  5.249099091354e-02 
  5.190624734919e-02 
  5.193565602724e-02 
  5.243900289579e-02 
  5.387071094211e-02 
  5.339984303300e-02 
  5.344722765068e-02 
  5.490875483085e-02 
  5.455051503954e-02 
  5.568913199048e-02 
  6.102428080436e-02 
  6.002620968050e-02 
  5.894516539872e-02 
  5.782701478441e-02 
  5.672172369371e-02 
  5.568791070666e-02 
  5.971440219734e-02 
  5.892703456429e-02 
  5.811440806353e-02 
  5.731006235234e-02 
  5.655536290525e-02 
  5.864207518129e-02 
  5.806951305133e-02 
  5.751255614627e-02 
  5.699929158197e-02 
  5.774825117491e-02 
  5.738697255302e-02 
  5.707140434312e-02 
  5.698765328939e-02 
  5.683302877333e-02 
  5.631133185550e-02 
  3.724350951394e-02 
  3.451423792263e-02 
  3.142231133197e-02 
  2.789363214655e-02 
  2.385703181812e-02 
  1.927300566833e-02 
  3.542802848945e-02 
  3.247195440450e-02 
  2.911638477996e-02 
  2.531562506785e-02 
  2.104434190058e-02 
  3.405782124062e-02 
  3.094997949264e-02 
  2.744931290497e-02 
  2.352165885648e-02 
  3.318646084987e-02 
  3.003267989347e-02 
  2.651524107919e-02 
  3.284898886612e-02 
  2.975750925879e-02 
  3.303447877223e-02 
  6.579730076819e-02 
  6.392941454406e-02 
  6.225301160991e-02 
  6.069787047713e-02 
  5.920531725307e-02 
  5.773658577046e-02 
  6.443329452431e-02 
  6.277206358815e-02 
  6.120639423754e-02 
  5.969629731479e-02 
  5.820525824516e-02 
  6.316368786667e-02 
  6.164136942224e-02 
  6.016402321090e-02 
  5.869807043023e-02 
  6.202732532954e-02 
  6.061249625333e-02 
  5.916849258716e-02 
  6.098304131994e-02 
  5.949137531075e-02 
  5.932626982221e-02 
  6.194014408632e-02 
  5.351033453171e-02 
  5.356132386809e-02 
  5.370643141013e-02 
  5.393235721052e-02 
  5.675045261739e-02 
  5.580837545205e-02 
  5.380662153402e-02 
  5.387563907423e-02 
  5.399363900657e-02 
  5.340577784766e-02 
  5.389952479179e-02 
  5.407858362118e-02 
  5.399091635227e-02 
  5.401958780251e-02 
  5.310909060644e-02 
  5.359591579873e-02 
  5.762769940223e-02 
  5.436333806636e-02 
  5.755474887181e-02 
  5.671978648376e-02 
  6.923537508178e-02 
  6.808895275924e-02 
  6.712483508295e-02 
  6.632483821678e-02 
  6.557082871592e-02 
  6.427510087276e-02 
  6.982827811931e-02 
  6.858368247453e-02 
  6.754808534900e-02 
  6.670206172365e-02 
  6.588473252582e-02 
  7.028268394566e-02 
  6.895341797290e-02 
  6.786774683636e-02 
  6.698494366539e-02 
  7.058221364797e-02 
  6.919538165808e-02 
  6.808021659258e-02 
  7.072497988095e-02 
  6.930832041797e-02 
  7.071190634283e-02 
  6.923467350444e-02 
  6.881856355828e-02 
  6.825938624013e-02 
  6.755948328324e-02 
  6.672970773903e-02 
  6.579620512088e-02 
  6.696661516277e-02 
  6.647848879861e-02 
  6.588809616454e-02 
  6.520420859770e-02 
  6.443335890975e-02 
  6.502031288268e-02 
  6.446681822354e-02 
  6.384556946379e-02 
  6.316346755836e-02 
  6.328926593800e-02 
  6.268888873975e-02 
  6.202734941369e-02 
  6.157300534536e-02 
  6.098271924803e-02 
  5.932733523399e-02 
  6.102339694564e-02 
  6.253520759279e-02 
  6.443610695527e-02 
  6.689134950838e-02 
  7.007068157664e-02 
  7.409016010043e-02 
  6.152027051662e-02 
  6.318330748063e-02 
  6.536880591721e-02 
  6.826757954061e-02 
  7.199028941460e-02 
  6.190565548301e-02 
  6.377553727908e-02 
  6.631241803991e-02 
  6.965270318207e-02 
  6.215294803914e-02 
  6.426298974458e-02 
  6.712136504244e-02 
  6.217874849442e-02 
  6.446212772823e-02 
  6.175051976564e-02 
  7.409054676266e-02 
  7.007072479356e-02 
  6.689148080490e-02 
  6.443615415883e-02 
  6.253529606719e-02 
  6.102322085366e-02 
  7.214608456330e-02 
  6.874684006781e-02 
  6.603935740447e-02 
  6.388213907434e-02 
  6.212558264106e-02 
  7.028261343272e-02 
  6.744640963608e-02 
  6.512021830185e-02 
  6.318605482222e-02 
  6.861475155021e-02 
  6.621263186481e-02 
  6.416593826817e-02 
  6.712828302356e-02 
  6.504284381111e-02 
  6.579418484569e-02 
  8.236459117802e-02 
  8.132096222797e-02 
  7.994473362986e-02 
  7.825408503450e-02 
  7.628263801273e-02 
  7.409318176013e-02 
  7.771729099414e-02 
  7.664471677556e-02 
  7.533375727881e-02 
  7.381944418482e-02 
  7.214580830788e-02 
  7.379675619208e-02 
  7.276422316525e-02 
  7.158377629810e-02 
  7.028295085642e-02 
  7.060214432694e-02 
  6.965387147311e-02 
  6.861441641186e-02 
  6.798886927024e-02 
  6.712815746122e-02 
  6.579278498564e-02 
  6.936146605232e-02 
  6.969174746254e-02 
  6.821755884249e-02 