# vtk DataFile Version 2
NuDG++ 2D simulation
ASCII
DATASET UNSTRUCTURED_GRID

POINTS 7854 double
 -1.656250060000e-01  -2.000000030000e-01  0.0
 -1.725000054000e-01  -1.908888817000e-01  0.0
 -1.793750048000e-01  -1.817777604000e-01  0.0
 -1.862500042000e-01  -1.726666391000e-01  0.0
 -1.931250036000e-01  -1.635555178000e-01  0.0
 -2.000000030000e-01  -1.544443965000e-01  0.0
 -1.725000054000e-01  -2.000000030000e-01  0.0
 -1.793750048000e-01  -1.908888817000e-01  0.0
 -1.862500042000e-01  -1.817777604000e-01  0.0
 -1.931250036000e-01  -1.726666391000e-01  0.0
 -2.000000030000e-01  -1.635555178000e-01  0.0
 -1.793750048000e-01  -2.000000030000e-01  0.0
 -1.862500042000e-01  -1.908888817000e-01  0.0
 -1.931250036000e-01  -1.817777604000e-01  0.0
 -2.000000030000e-01  -1.726666391000e-01  0.0
 -1.862500042000e-01  -2.000000030000e-01  0.0
 -1.931250036000e-01  -1.908888817000e-01  0.0
 -2.000000030000e-01  -1.817777604000e-01  0.0
 -1.931250036000e-01  -2.000000030000e-01  0.0
 -2.000000030000e-01  -1.908888817000e-01  0.0
 -2.000000030000e-01  -2.000000030000e-01  0.0
 -6.428571790000e-02  -1.700000018000e-01  0.0
 -7.080357372400e-02  -1.760000020400e-01  0.0
 -7.732142954800e-02  -1.820000022800e-01  0.0
 -8.383928537200e-02  -1.880000025200e-01  0.0
 -9.035714119600e-02  -1.940000027600e-01  0.0
 -9.687499702000e-02  -2.000000030000e-01  0.0
 -6.392857432000e-02  -1.760000020400e-01  0.0
 -7.044643014400e-02  -1.820000022800e-01  0.0
 -7.696428596800e-02  -1.880000025200e-01  0.0
 -8.348214179200e-02  -1.940000027600e-01  0.0
 -8.999999761600e-02  -2.000000030000e-01  0.0
 -6.357143074000e-02  -1.820000022800e-01  0.0
 -7.008928656400e-02  -1.880000025200e-01  0.0
 -7.660714238800e-02  -1.940000027600e-01  0.0
 -8.312499821200e-02  -2.000000030000e-01  0.0
 -6.321428716000e-02  -1.880000025200e-01  0.0
 -6.973214298400e-02  -1.940000027600e-01  0.0
 -7.624999880800e-02  -2.000000030000e-01  0.0
 -6.285714358000e-02  -1.940000027600e-01  0.0
 -6.937499940400e-02  -2.000000030000e-01  0.0
 -6.250000000000e-02  -2.000000030000e-01  0.0
 -2.000000030000e-01  -1.544443965000e-01  0.0
 -1.900000036000e-01  -1.478412374800e-01  0.0
 -1.800000042000e-01  -1.412380784600e-01  0.0
 -1.700000048000e-01  -1.346349194400e-01  0.0
 -1.600000054000e-01  -1.280317604200e-01  0.0
 -1.500000060000e-01  -1.214286014000e-01  0.0
 -2.000000030000e-01  -1.453332975600e-01  0.0
 -1.900000036000e-01  -1.387301385400e-01  0.0
 -1.800000042000e-01  -1.321269795200e-01  0.0
 -1.700000048000e-01  -1.255238205000e-01  0.0
 -1.600000054000e-01  -1.189206614800e-01  0.0
 -2.000000030000e-01  -1.362221986200e-01  0.0
 -1.900000036000e-01  -1.296190396000e-01  0.0
 -1.800000042000e-01  -1.230158805800e-01  0.0
 -1.700000048000e-01  -1.164127215600e-01  0.0
 -2.000000030000e-01  -1.271110996800e-01  0.0
 -1.900000036000e-01  -1.205079406600e-01  0.0
 -1.800000042000e-01  -1.139047816400e-01  0.0
 -2.000000030000e-01  -1.180000007400e-01  0.0
 -1.900000036000e-01  -1.113968417200e-01  0.0
 -2.000000030000e-01  -1.088889018000e-01  0.0
 -1.500000060000e-01  -1.214286014000e-01  0.0
 -1.600000054000e-01  -1.280317604200e-01  0.0
 -1.700000048000e-01  -1.346349194400e-01  0.0
 -1.800000042000e-01  -1.412380784600e-01  0.0
 -1.900000036000e-01  -1.478412374800e-01  0.0
 -2.000000030000e-01  -1.544443965000e-01  0.0
 -1.500000060000e-01  -1.311428814800e-01  0.0
 -1.600000054000e-01  -1.377460405000e-01  0.0
 -1.700000048000e-01  -1.443491995200e-01  0.0
 -1.800000042000e-01  -1.509523585400e-01  0.0
 -1.900000036000e-01  -1.575555175600e-01  0.0
 -1.500000060000e-01  -1.408571615600e-01  0.0
 -1.600000054000e-01  -1.474603205800e-01  0.0
 -1.700000048000e-01  -1.540634796000e-01  0.0
 -1.800000042000e-01  -1.606666386200e-01  0.0
 -1.500000060000e-01  -1.505714416400e-01  0.0
 -1.600000054000e-01  -1.571746006600e-01  0.0
 -1.700000048000e-01  -1.637777596800e-01  0.0
 -1.500000060000e-01  -1.602857217200e-01  0.0
 -1.600000054000e-01  -1.668888807400e-01  0.0
 -1.500000060000e-01  -1.700000018000e-01  0.0
 -1.500000060000e-01  -7.285714149000e-02  0.0
 -1.600000054000e-01  -8.006349355200e-02  0.0
 -1.700000048000e-01  -8.726984561400e-02  0.0
 -1.800000042000e-01  -9.447619767600e-02  0.0
 -1.900000036000e-01  -1.016825497380e-01  0.0
 -2.000000030000e-01  -1.088889018000e-01  0.0
 -1.500000060000e-01  -8.257143347200e-02  0.0
 -1.600000054000e-01  -8.977778553400e-02  0.0
 -1.700000048000e-01  -9.698413759600e-02  0.0
 -1.800000042000e-01  -1.041904896580e-01  0.0
 -1.900000036000e-01  -1.113968417200e-01  0.0
 -1.500000060000e-01  -9.228572545400e-02  0.0
 -1.600000054000e-01  -9.949207751600e-02  0.0
 -1.700000048000e-01  -1.066984295780e-01  0.0
 -1.800000042000e-01  -1.139047816400e-01  0.0
 -1.500000060000e-01  -1.020000174360e-01  0.0
 -1.600000054000e-01  -1.092063694980e-01  0.0
 -1.700000048000e-01  -1.164127215600e-01  0.0
 -1.500000060000e-01  -1.117143094180e-01  0.0
 -1.600000054000e-01  -1.189206614800e-01  0.0
 -1.500000060000e-01  -1.214286014000e-01  0.0
  1.832975030000e+00  -4.625000060000e-02  0.0
  1.841380024000e+00  -7.700000108000e-02  0.0
  1.849785018000e+00  -1.077500015600e-01  0.0
  1.858190012000e+00  -1.385000020400e-01  0.0
  1.866595006000e+00  -1.692500025200e-01  0.0
  1.875000000000e+00  -2.000000030000e-01  0.0
  1.866380024000e+00  -5.649999976400e-02  0.0
  1.874785018000e+00  -8.725000024400e-02  0.0
  1.883190012000e+00  -1.180000007240e-01  0.0
  1.891595006000e+00  -1.487500012040e-01  0.0
  1.900000000000e+00  -1.795000016840e-01  0.0
  1.899785018000e+00  -6.674999892800e-02  0.0
  1.908190012000e+00  -9.749999940800e-02  0.0
  1.916595006000e+00  -1.282499998880e-01  0.0
  1.925000000000e+00  -1.590000003680e-01  0.0
  1.933190012000e+00  -7.699999809200e-02  0.0
  1.941595006000e+00  -1.077499985720e-01  0.0
  1.950000000000e+00  -1.384999990520e-01  0.0
  1.966595006000e+00  -8.724999725600e-02  0.0
  1.975000000000e+00  -1.179999977360e-01  0.0
  2.000000000000e+00  -9.749999642000e-02  0.0
 -1.500000060000e-01  -1.700000018000e-01  0.0
 -1.444000050800e-01  -1.630000025200e-01  0.0
 -1.388000041600e-01  -1.560000032400e-01  0.0
 -1.332000032400e-01  -1.490000039600e-01  0.0
 -1.276000023200e-01  -1.420000046800e-01  0.0
 -1.220000014000e-01  -1.350000054000e-01  0.0
 -1.500000060000e-01  -1.602857217200e-01  0.0
 -1.444000050800e-01  -1.532857224400e-01  0.0
 -1.388000041600e-01  -1.462857231600e-01  0.0
 -1.332000032400e-01  -1.392857238800e-01  0.0
 -1.276000023200e-01  -1.322857246000e-01  0.0
 -1.500000060000e-01  -1.505714416400e-01  0.0
 -1.444000050800e-01  -1.435714423600e-01  0.0
 -1.388000041600e-01  -1.365714430800e-01  0.0
 -1.332000032400e-01  -1.295714438000e-01  0.0
 -1.500000060000e-01  -1.408571615600e-01  0.0
 -1.444000050800e-01  -1.338571622800e-01  0.0
 -1.388000041600e-01  -1.268571630000e-01  0.0
 -1.500000060000e-01  -1.311428814800e-01  0.0
 -1.444000050800e-01  -1.241428822000e-01  0.0
 -1.500000060000e-01  -1.214286014000e-01  0.0
  2.849999964000e-01  -2.333333530000e-02  0.0
  2.844999968800e-01  -4.666666836000e-02  0.0
  2.839999973600e-01  -7.000000142000e-02  0.0
  2.834999978400e-01  -9.333333448000e-02  0.0
  2.829999983200e-01  -1.166666675400e-01  0.0
  2.824999988000e-01  -1.400000006000e-01  0.0
  2.979999959200e-01  -3.266666830000e-02  0.0
  2.974999964000e-01  -5.600000136000e-02  0.0
  2.969999968800e-01  -7.933333442000e-02  0.0
  2.964999973600e-01  -1.026666674800e-01  0.0
  2.959999978400e-01  -1.260000005400e-01  0.0
  3.109999954400e-01  -4.200000130000e-02  0.0
  3.104999959200e-01  -6.533333436000e-02  0.0
  3.099999964000e-01  -8.866666742000e-02  0.0
  3.094999968800e-01  -1.120000004800e-01  0.0
  3.239999949600e-01  -5.133333430000e-02  0.0
  3.234999954400e-01  -7.466666736000e-02  0.0
  3.229999959200e-01  -9.800000042000e-02  0.0
  3.369999944800e-01  -6.066666730000e-02  0.0
  3.364999949600e-01  -8.400000036000e-02  0.0
  3.499999940000e-01  -7.000000030000e-02  0.0
 -1.071429029000e-01  -1.700000018000e-01  0.0
 -9.857146590000e-02  -1.700000018000e-01  0.0
 -9.000002890000e-02  -1.700000018000e-01  0.0
 -8.142859190000e-02  -1.700000018000e-01  0.0
 -7.285715490000e-02  -1.700000018000e-01  0.0
 -6.428571790000e-02  -1.700000018000e-01  0.0
 -1.037143230360e-01  -1.630000025200e-01  0.0
 -9.514288603600e-02  -1.630000025200e-01  0.0
 -8.657144903600e-02  -1.630000025200e-01  0.0
 -7.800001203600e-02  -1.630000025200e-01  0.0
 -6.942857503600e-02  -1.630000025200e-01  0.0
 -1.002857431720e-01  -1.560000032400e-01  0.0
 -9.171430617200e-02  -1.560000032400e-01  0.0
 -8.314286917200e-02  -1.560000032400e-01  0.0
 -7.457143217200e-02  -1.560000032400e-01  0.0
 -9.685716330800e-02  -1.490000039600e-01  0.0
 -8.828572630800e-02  -1.490000039600e-01  0.0
 -7.971428930800e-02  -1.490000039600e-01  0.0
 -9.342858344400e-02  -1.420000046800e-01  0.0
 -8.485714644400e-02  -1.420000046800e-01  0.0
 -9.000000358000e-02  -1.350000054000e-01  0.0
 -1.312499940000e-01  -2.000000030000e-01  0.0
 -1.264285757800e-01  -1.940000027600e-01  0.0
 -1.216071575600e-01  -1.880000025200e-01  0.0
 -1.167857393400e-01  -1.820000022800e-01  0.0
 -1.119643211200e-01  -1.760000020400e-01  0.0
 -1.071429029000e-01  -1.700000018000e-01  0.0
 -1.349999964000e-01  -1.940000027600e-01  0.0
 -1.301785781800e-01  -1.880000025200e-01  0.0
 -1.253571599600e-01  -1.820000022800e-01  0.0
 -1.205357417400e-01  -1.760000020400e-01  0.0
 -1.157143235200e-01  -1.700000018000e-01  0.0
 -1.387499988000e-01  -1.880000025200e-01  0.0
 -1.339285805800e-01  -1.820000022800e-01  0.0
 -1.291071623600e-01  -1.760000020400e-01  0.0
 -1.242857441400e-01  -1.700000018000e-01  0.0
 -1.425000012000e-01  -1.820000022800e-01  0.0
 -1.376785829800e-01  -1.760000020400e-01  0.0
 -1.328571647600e-01  -1.700000018000e-01  0.0
 -1.462500036000e-01  -1.760000020400e-01  0.0
 -1.414285853800e-01  -1.700000018000e-01  0.0
 -1.500000060000e-01  -1.700000018000e-01  0.0
[...]
POINT_DATA 7854
SCALARS field1 double 1
LOOKUP_TABLE default
 -1.801015529014e-06 
  1.248000148529e-02 
  1.452227232088e-02 
  1.486220998651e-02 
  1.639876967243e-02 
  1.927049653368e-02 
 -3.793732860265e-06 
  1.032580031076e-02 
  1.190759737751e-02 
  1.298822645642e-02 
  1.579540241348e-02 
  1.728697159229e-06 
  7.827129648862e-03 
  9.507736966830e-03 
  1.214117428739e-02 
  9.904118400924e-06 
  5.427423996662e-03 
  8.290326054067e-03 
 -2.727514514718e-06 
  4.235206013561e-03 
  3.051655292329e-06 
  3.704501750608e-02 
  3.586916682682e-02 
  3.369899058381e-02 
  2.903098343501e-02 
  1.912501165636e-02 
 -8.192743250820e-07 
  3.650374906177e-02 
  3.434125740385e-02 
  2.963689856267e-02 
  1.955722918384e-02 
 -2.754172666472e-07 
  3.494177254618e-02 
  3.020213165142e-02 
  1.996549848086e-02 
 -3.189489041318e-07 
  3.072996108170e-02 
  2.034741855322e-02 
 -3.091205786769e-07 
  2.070162819747e-02 
 -1.919403888153e-07 
 -4.355697560489e-07 
  1.926932379080e-02 
  2.224335908462e-02 
  2.534799501520e-02 
  2.796045640999e-02 
  3.004330334886e-02 
  3.173321563217e-02 
  2.254320347798e-02 
  2.515001607411e-02 
  2.773187479867e-02 
  2.988739540452e-02 
  3.160749043978e-02 
  2.562688431866e-02 
  2.790290649031e-02 
  3.000887131590e-02 
  3.173455039525e-02 
  2.851610978974e-02 
  3.048881501958e-02 
  3.216098769535e-02 
  3.121324317243e-02 
  3.290360592624e-02 
  3.371880850421e-02 
  3.173305502993e-02 
  3.004329257606e-02 
  2.795996441958e-02 
  2.534804242453e-02 
  2.224354195069e-02 
  1.927093652961e-02 
  3.037476813316e-02 
  2.835362993098e-02 
  2.585437821785e-02 
  2.271627689837e-02 
  1.903048747439e-02 
  2.900790674250e-02 
  2.667335501275e-02 
  2.374989313285e-02 
  2.006619087382e-02 
  2.769390152986e-02 
  2.505869960161e-02 
  2.171917199083e-02 
  2.648993676128e-02 
  2.356400600388e-02 
  2.537503827153e-02 
  3.702088796961e-02 
  3.706316407431e-02 
  3.683539656876e-02 
  3.626673438230e-02 
  3.526868790379e-02 
  3.372011831731e-02 
  3.620897441665e-02 
  3.590307396893e-02 
  3.528677232598e-02 
  3.430084145722e-02 
  3.290304579685e-02 
  3.526866013414e-02 
  3.461066189124e-02 
  3.358636382672e-02 
  3.216053535926e-02 
  3.420932592217e-02 
  3.318042687528e-02 
  3.173433594945e-02 
  3.302603278005e-02 
  3.160763423063e-02 
  3.173243063628e-02 
  3.770410437106e-02 
  3.179182668594e-02 
  3.257591985491e-02 
  3.223494441284e-02 
  3.531258455476e-02 
  6.008240528855e-04 
  3.347101478577e-02 
  3.371100946264e-02 
  3.281572799358e-02 
  3.271280441440e-02 
  3.156923293137e-02 
  3.339813610824e-02 
  3.364878487542e-02 
  3.258203988900e-02 
  3.312546835216e-02 
  3.324325225356e-02 
  3.314957010881e-02 
  3.222893959112e-02 
  3.375587864376e-02 
  3.196228516708e-02 
  3.459391788781e-02 
  2.537501039133e-02 
  2.719988338333e-02 
  2.879411387011e-02 
  3.020986121203e-02 
  3.147784111727e-02 
  3.260273496193e-02 
  2.648912637610e-02 
  2.821616656314e-02 
  2.974471790863e-02 
  3.109491849830e-02 
  3.228054894921e-02 
  2.769407255791e-02 
  2.933981075988e-02 
  3.077414154363e-02 
  3.201937971328e-02 
  2.900810769012e-02 
  3.052752737152e-02 
  3.183302192973e-02 
  3.037409906202e-02 
  3.173050076259e-02 
  3.173312258065e-02 
  3.392758134825e-02 
  3.313414126969e-02 
  3.350511718502e-02 
  3.362487193436e-02 
  3.359600480195e-02 
  3.510011070211e-02 
  3.337824294804e-02 
  3.333202775274e-02 
  3.355633202722e-02 
  3.355486100603e-02 
  3.371567539807e-02 
  3.338593621442e-02 
  3.350274507886e-02 
  3.356383945582e-02 
  3.353790203818e-02 
  3.361044240178e-02 
  3.356832204319e-02 
  3.353376497977e-02 
  3.358883266416e-02 
  3.366587504327e-02 
  3.316414705683e-02 
  3.236351817159e-02 
  3.343870155181e-02 
  3.443495939855e-02 
  3.536832622010e-02 
  3.623845393231e-02 
  3.704792337513e-02 
  3.314414055466e-02 
  3.415758238902e-02 
  3.511382112305e-02 
  3.601495561899e-02 
  3.686130990714e-02 
  3.382912578485e-02 
  3.479041423928e-02 
  3.570922774744e-02 
  3.658825899271e-02 
  3.449548458641e-02 
  3.541277926285e-02 
  3.630688227822e-02 
  3.514461740760e-02 
  3.603252368143e-02 
  3.577984423172e-02 
 -1.047304922023e-06 
  1.627792506049e-02 
  2.488756472480e-02 
  2.908996500840e-02 
  3.116201371274e-02 
  3.236370153541e-02 
  1.540130098925e-02 
  2.367732517052e-02 
  2.781765541835e-02 
  2.992986269164e-02 
  3.122023978291e-02 
  2.231450303362e-02 
  2.640133850277e-02 
  2.857869491684e-02 
  2.996709516506e-02 
  2.480575831906e-02 
  2.707651257794e-02 
  2.859337813581e-02 
  2.538821966098e-02 
  2.707332874541e-02 
  2.537388422997e-02 
  3.260393041827e-02 
  3.323351977625e-02 
  3.386146496464e-02 
  3.449445064187e-02 
  3.513131266713e-02 
  3.577931517752e-02 
  3.323144370559e-02 
  3.378758740158e-02 
  3.435830341658e-02 
  3.494648175609e-02 
  3.555274690255e-02 
  3.380428254782e-02 
  3.429428552381e-02 
  3.481143883673e-02 
  3.535982573491e-02 
  3.431443863881e-02 
  3.474031457739e-02 
  3.520796536202e-02 
  3.474795303525e-02 
  3.511164342347e-02 
  3.508218693991e-02 
  3.577911758046e-02 
  3.513144369889e-02 
  3.449443921261e-02 
  3.386149113457e-02 
  3.323356195621e-02 
  3.260411371052e-02 
  3.514491862318e-02 
  3.447743810422e-02 
  3.380322552778e-02 
  3.312104563318e-02 
  3.242651051496e-02 
  3.449526080226e-02 
  3.379129354462e-02 
  3.306939408321e-02 
  3.232700231703e-02 
  3.382926094684e-02 
  3.308169904575e-02 
  3.230444156638e-02 
  3.314418936786e-02 
  3.234522241916e-02 
  3.236417776086e-02 
  3.783349619169e-02 
  3.706502165426e-02 
  3.643869946684e-02 
  3.591803839883e-02 
  3.547578600478e-02 
  3.508231640224e-02 
  3.764226583533e-02 
  3.688214160541e-02 
  3.622360908750e-02 
  3.564022209846e-02 
  3.511156857070e-02 
  3.730199803031e-02 
  3.654344655746e-02 
  3.585160503421e-02 
  3.520797070230e-02 
  3.685670036790e-02 
  3.608983429927e-02 
  3.535983296786e-02 
  3.633946174049e-02 
  3.555266675364e-02 
  3.577978997483e-02 
  3.260360694611e-02 
  3.323150796079e-02 
  3.380424071158e-02 
  3.431445319621e-02 
  3.474812650283e-02 
  3.508183484405e-02 
  3.228045751938e-02 
  3.296930241097e-02 
  3.359540772596e-02 
  3.414887233137e-02 
  3.461599296991e-02 
  3.201943795621e-02 
  3.277666897097e-02 
  3.346327258302e-02 
  3.406751897313e-02 
  3.183259235884e-02 
  3.266542556170e-02 
  3.341956160385e-02 
  3.173049318212e-02 
  3.264788333284e-02 
  3.173263954020e-02 
  3.783310975151e-02 
  3.764225553516e-02 
  3.730194792194e-02 
  3.685673329080e-02 
  3.633930689731e-02 
  3.578065327206e-02 
  3.846335405230e-02 
  3.813591612220e-02 
  3.770193443501e-02 
  3.719952940856e-02 
  3.665277688234e-02 
  3.907023848245e-02 
  3.861164204453e-02 
  3.809130720935e-02 
  3.753886701446e-02 
  3.962976377765e-02 
  3.905364547846e-02 
  3.845948714668e-02 
  4.012848857678e-02 
  3.945099721532e-02 
  4.055067454332e-02 
  3.236410885148e-02 
  3.234553171946e-02 
  3.230468441119e-02 
  3.232707531531e-02 
  3.242635701660e-02 
  3.260374773206e-02 
  3.122049152744e-02 
  3.121091351349e-02 
  3.120895703702e-02 
  3.129434527264e-02 
  3.147779998227e-02 
  2.996722851872e-02 
  2.998818760405e-02 
  3.004260858246e-02 
  3.021002401833e-02 
  2.859363470457e-02 
  2.865800401333e-02 
  2.879360193855e-02 
  2.707339674427e-02 
  2.719976024276e-02 
  2.537453119921e-02 
 -2.167496649791e-07 
 -3.104916675287e-07 
 -2.376903652147e-07 
 -3.637671489255e-07 
 -2.947514731049e-07 
 -1.085416298407e-06 
  2.260816527529e-02 
  2.255492802807e-02 
  2.239378776410e-02 
  2.214554083435e-02 
  2.183937194365e-02 
  3.359058428270e-02 
  3.348744943077e-02 
  3.322066449557e-02 
  3.283043279462e-02 
  3.823529858062e-02 
  3.807126963787e-02 
  3.773272339885e-02 
  3.996949918966e-02 
  3.973664866925e-02 
  4.057492453001e-02 
  3.701937603026e-02 
  3.620796845121e-02 
  3.526838967777e-02 
  3.420963822544e-02 
  3.302610852821e-02 
  3.173255839940e-02 
  3.619003534862e-02 
  3.548218068272e-02 
  3.465780037642e-02 
  3.371105995754e-02 
  3.264783846685e-02 
  3.559807657180e-02 
  3.499197579939e-02 
  3.426213800004e-02 
  3.341963631529e-02 
  3.522439596783e-02 
  3.470743712922e-02 
  3.406762676076e-02 
  3.506236074240e-02 
  3.461601761200e-02 
  3.508146634360e-02 
  4.335380960562e-02 
  4.235452290374e-02 
  4.078498048039e-02 
  3.928921978552e-02 
  3.803097179770e-02 
  3.702125326081e-02 
  4.373745635884e-02 
  4.203332324014e-02 
  4.035732226819e-02 
  3.891540285476e-02 
  3.768745268664e-02 
  4.309359205783e-02 
  4.125102572374e-02 
  3.962124821610e-02 
  3.820568118336e-02 
  4.199104103198e-02 
  4.018887335871e-02 
  3.859045278088e-02 
  4.064174992982e-02 
  3.888280515421e-02 
  3.912495881453e-02 
  4.335254140860e-02 
  4.181081799625e-02 
  4.007677899310e-02 
  3.815105597745e-02 
  3.603176911791e-02 
  3.371894961232e-02 
  4.235491179656e-02 
  4.085784662078e-02 
  3.917333519378e-02 
  3.731284881621e-02 
  3.526844620655e-02 
  4.078504466878e-02 
  3.943763800536e-02 
  3.792759721625e-02 
  3.626614697643e-02 
  3.928924299475e-02 
  3.813536188866e-02 
  3.683632534139e-02 
  3.803023566287e-02 
  3.706290015917e-02 
  3.702321526722e-02 
  4.335280737976e-02 
  4.373716348088e-02 
  4.309287919107e-02 
  4.199137911021e-02 
  4.064150186080e-02 
  3.912667231495e-02 
  4.470193544048e-02 
  4.484992527880e-02 
  4.390852629322e-02 
  4.254326913643e-02 
  4.097980084123e-02 
  4.585751188037e-02 
  4.578023316223e-02 
  4.457596898769e-02 
  4.297391994763e-02 
  4.682028333539e-02 
  4.653498924449e-02 
  4.509276990399e-02 
  4.759170982989e-02 
  4.710423059906e-02 
  4.816847792709e-02 
  3.912341856873e-02 
  3.888187722304e-02 
  3.858983070621e-02 
  3.820592218888e-02 
  3.768772606365e-02 
  3.701863627072e-02 
  3.755635242721e-02 
  3.746787412216e-02 
  3.734126874926e-02 
  3.713418445021e-02 
  3.679796406256e-02 
  3.608024282575e-02 
  3.617445565220e-02 
  3.624019779830e-02 
  3.622883771319e-02 
  3.466950240576e-02 
  3.499349189772e-02 
  3.529398323682e-02 
  3.332589548604e-02 
  3.394028922174e-02 
  3.205993345396e-02 
  3.098109513717e-02 
  3.288713425066e-02 
  3.463802018140e-02 
  3.624892905291e-02 
  3.773460407194e-02 
  3.912270651472e-02 
  3.085254327155e-02 
  3.283243859692e-02 
  3.458462489743e-02 
  3.615038471953e-02 
  3.755635072747e-02 
  3.091359531984e-02 
  3.289603059801e-02 
  3.459876544899e-02 
  3.608002348102e-02 
  3.115098531233e-02 
  3.306632105311e-02 
  3.466978290828e-02 
  3.154305315788e-02 
  3.332583622483e-02 
  3.206072450734e-02 
  3.912507256487e-02 
  3.927417227968e-02 
  3.938426374847e-02 
  3.944367530187e-02 
  3.947085981389e-02 
  3.948239159109e-02 
  4.098021649343e-02 
  4.123773845462e-02 
  4.138708059040e-02 
  4.145052535192e-02 
  4.143041879826e-02 
  4.297379105890e-02 
  4.329292423321e-02 
  4.347770956376e-02 
  4.353463044857e-02 
  4.509321097127e-02 
  4.546784772284e-02 
  4.567026501653e-02 
  4.710397983249e-02 
  4.751004208774e-02 
  4.816946144559e-02 
  3.701714094676e-02 
  3.636390873306e-02 
  3.578866652666e-02 
  3.530952994787e-02 
  3.494909737855e-02 
  3.478232992979e-02 
  3.679829339812e-02 
  3.599599672311e-02 
  3.527125075144e-02 
  3.463358096063e-02 
  3.412670642877e-02 
  3.622853092066e-02 
  3.526138276215e-02 
  3.434371440973e-02 
  3.349052442138e-02 
  3.529397018279e-02 
  3.410454760883e-02 
  3.290846013245e-02 
  3.394018925167e-02 
  3.242229269301e-02 
  3.206089565239e-02 
  3.517296296769e-02 
  3.381093087926e-02 
  3.340943831307e-02 
  3.345735922791e-02 
  3.400111730318e-02 
  3.503842976211e-02 
  3.344899238577e-02 
  3.362131211007e-02 
  3.364202346625e-02 
  3.392253936236e-02 
  3.436031162931e-02 
  3.342756794826e-02 
  3.321474831713e-02 
  3.308861269373e-02 
  3.261127884115e-02 
  3.328386495754e-02 
  3.354926427262e-02 
  3.308578486177e-02 
  2.880850662857e-02 
  3.256778075687e-02 
  2.873672374235e-04 
  3.042108971371e-02 
  3.185762642656e-02 
  3.291588214042e-02 
  3.371938258236e-02 
  3.432554062501e-02 
  3.478572882095e-02 
  3.193089722010e-02 
  3.302627641362e-02 
  3.382716025709e-02 
  3.442739222019e-02 
  3.486513422033e-02 
  3.354615696751e-02 
  3.427728397933e-02 
  3.479939503414e-02 
  3.518049529332e-02 
  3.521462126769e-02 
  3.557026880252e-02 
  3.580292036574e-02 
  3.687880145259e-02 
  3.686270627519e-02 
  3.848394499210e-02 
  3.478201759677e-02 
  3.494913875943e-02 
  3.530944487595e-02 
  3.578882267333e-02 
  3.636385756572e-02 
  3.701759987543e-02 
  3.528097549070e-02 
  3.529652527278e-02 
  3.548489724110e-02 
  3.579264669705e-02 
  3.619003086448e-02 
  3.553138358221e-02 
  3.541457693443e-02 
  3.545284386988e-02 
  3.559754399195e-02 
  3.556274216006e-02 
  3.533041394341e-02 
  3.522465767487e-02 
  3.540816184447e-02 
  3.506218956119e-02 
  3.508211480128e-02 
  1.303482828825e-02 
  1.589674778246e-02 
  1.835770474188e-02 
  2.047559512849e-02 
  2.231440522362e-02 
  2.393760775568e-02 
  1.420403993548e-02 
  1.694868280495e-02 
  1.928964423016e-02 
  2.129220471186e-02 
  2.301428034694e-02 
  1.568503360696e-02 
  1.831680309019e-02 
  2.049055137420e-02 
  2.232964806332e-02 
  1.751449673983e-02 
  1.997170877764e-02 
  2.193418505910e-02 
  1.968462587615e-02 
  2.188435574270e-02 
  2.213014217799e-02 
  2.393549886900e-02 
  2.614963506672e-02 
  2.799721069312e-02 
  2.955415740549e-02 
  3.089246901469e-02 
  3.206285396887e-02 
  2.480054845764e-02 
  2.684415622357e-02 
  2.853541195465e-02 
  2.996532570688e-02 
  3.119197589049e-02 
  2.594194760536e-02 
  2.773300700470e-02 
  2.922291741003e-02 
  3.049142788990e-02 
  2.730398193652e-02 
  2.878864431082e-02 
  3.003717484718e-02 
  2.881794431114e-02 
  2.996786759028e-02 
  3.042241348366e-02 
  3.041955040243e-02 
  2.947539437814e-02 
  2.828175854536e-02 
  2.678344912058e-02 
  2.481131333826e-02 
  2.213070036036e-02 
  2.881720149343e-02 
  2.758721284857e-02 
  2.609398997742e-02 
  2.424044374629e-02 
  2.188438464106e-02 
  2.730389372995e-02 
  2.583469802020e-02 
  2.407251162402e-02 
  2.193405305115e-02 
  2.594163127653e-02 
  2.428919773948e-02 
  2.232944023058e-02 
  2.479991066248e-02 
  2.301442727936e-02 
  2.393734654026e-02 
  2.393498470445e-02 
  2.487279970125e-02 
  2.622835842571e-02 
  2.777830646249e-02 
  2.938989227399e-02 
  3.098155998795e-02 
  2.614986911864e-02 
  2.695516967492e-02 
  2.810238349905e-02 
  2.943849589092e-02 
  3.085242261088e-02 
  2.799734688443e-02 
  2.871310678340e-02 
  2.972629152278e-02 
  3.091334519064e-02 
  2.955393943334e-02 
  3.022528355379e-02 
  3.115097255572e-02 
  3.089265112819e-02 
  3.154328507202e-02 
  3.206150879000e-02 
  3.783324179192e-02 
  3.813860649085e-02 
  3.838161436932e-02 
  3.855010517789e-02 
  3.861228947231e-02 
  3.848464977040e-02 
  3.726535829624e-02 
  3.738505451121e-02 
  3.738663918367e-02 
  3.723156082619e-02 
  3.686259183666e-02 
  3.664770111106e-02 
  3.656308516379e-02 
  3.630141297261e-02 
  3.580311299363e-02 
  3.600788205956e-02 
  3.571047576815e-02 
  3.518033838158e-02 
  3.537426136061e-02 
  3.486522189649e-02 
  3.478518855934e-02 
  3.042356904752e-02 
  2.996758382261e-02 
  3.003745123510e-02 
  3.049130212737e-02 
  3.119211305868e-02 
  3.206231105246e-02 
  3.185730357585e-02 
  3.143850550983e-02 
  3.147196094527e-02 
  3.182982807320e-02 
  3.242291439022e-02 
  3.291622186912e-02 
  3.257416792501e-02 
  3.259995402349e-02 
  3.290912215742e-02 
  3.371926026031e-02 
  3.345093185147e-02 
  3.349121355632e-02 
  3.432575851965e-02 
  3.412706171376e-02 
  3.478403591693e-02 
  3.783389341071e-02 
  3.726509806423e-02 
  3.664746973148e-02 
  3.600742104298e-02 
  3.537393288522e-02 
  3.478315993732e-02 
  3.706498497017e-02 
  3.662167363432e-02 
  3.616230550153e-02 
  3.570717782447e-02 
  3.528083723334e-02 
  3.643882631149e-02 
  3.612196686746e-02 
  3.581432027257e-02 
  3.553155656962e-02 
  3.591794678567e-02 
  3.572697115370e-02 
  3.556275192415e-02 
  3.547591187323e-02 
  3.540853450778e-02 
  3.508190297972e-02 
  2.393627193549e-02 
  2.231480371538e-02 
  2.047544225938e-02 
  1.835739668756e-02 
  1.589680527651e-02 
  1.303558780822e-02 
  2.284610913963e-02 
  2.108217584098e-02 
  1.906520612789e-02 
  1.675204142451e-02 
  1.410619580701e-02 
  2.202423357897e-02 
  2.015983945018e-02 
  1.804062239981e-02 
  1.562867770386e-02 
  2.150094236378e-02 
  1.960266209610e-02 
  1.746495174368e-02 
  2.129797661759e-02 
  1.943504133156e-02 
  2.140708067737e-02 
  4.055136566039e-02 
  3.945094698164e-02 
  3.845970787253e-02 
  3.753873883181e-02 
  3.665290303784e-02 
  3.578022650167e-02 
  3.972083683140e-02 
  3.873934531312e-02 
  3.781402190887e-02 
  3.691874289079e-02 
  3.603285390677e-02 
  3.895041577676e-02 
  3.805065056137e-02 
  3.717485704839e-02 
  3.630687889129e-02 
  3.826078788087e-02 
  3.742719190143e-02 
  3.658859625938e-02 
  3.767007480531e-02 
  3.686142562139e-02 
  3.705036710819e-02 
  3.763382396074e-02 
  3.339176190734e-02 
  3.335874629131e-02 
  3.322957875355e-02 
  3.369027346399e-02 
  3.473945240266e-02 
  3.382768692327e-02 
  3.320644284580e-02 
  3.331995768344e-02 
  3.332196091560e-02 
  3.396324741291e-02 
  3.318385937050e-02 
  3.343784508534e-02 
  3.334683199552e-02 
  3.376849206017e-02 
  3.314101102848e-02 
  3.315219284411e-02 
  3.440874524184e-02 
  3.371374254810e-02 
  3.471769581358e-02 
  3.459776928105e-02 
  4.250954895872e-02 
  4.181823714871e-02 
  4.123808724091e-02 
  4.076617371125e-02 
  4.039391079638e-02 
  3.999159014688e-02 
  4.284921190915e-02 
  4.210156246168e-02 
  4.148092998298e-02 
  4.098679096337e-02 
  4.059459147268e-02 
  4.310787345674e-02 
  4.231198974113e-02 
  4.166415391797e-02 
  4.115303337471e-02 
  4.327537987421e-02 
  4.244777660217e-02 
  4.178513158468e-02 
  4.335193875183e-02 
  4.250922667999e-02 
  4.333651053607e-02 
  4.250902390419e-02 
  4.227626663601e-02 
  4.196027758305e-02 
  4.156213730612e-02 
  4.108747141495e-02 
  4.055039935139e-02 
  4.116710340750e-02 
  4.088998883308e-02 
  4.055321053040e-02 
  4.016198948286e-02 
  3.972088622091e-02 
  4.001384091143e-02 
  3.969749996008e-02 
  3.934176268511e-02 
  3.895022166688e-02 
  3.899421198805e-02 
  3.864364128738e-02 
  3.826085054552e-02 
  3.805072279680e-02 
  3.766981853089e-02 
  3.705125195871e-02 
  3.783271947024e-02 
  3.872445955848e-02 
  3.984681954068e-02 
  4.130289327234e-02 
  4.321279813759e-02 
  4.571628489891e-02 
  3.813843517649e-02 
  3.912224725103e-02 
  4.042047726734e-02 
  4.216809317760e-02 
  4.450548582308e-02 
  3.838129782254e-02 
  3.949466069381e-02 
  4.103000295409e-02 
  4.314813092003e-02 
  3.854993110043e-02 
  3.983294063278e-02 
  4.166619832839e-02 
  3.861235052197e-02 
  4.009669401055e-02 
  3.848351577734e-02 
  4.571642157761e-02 
  4.321287072447e-02 
  4.130296969728e-02 
  3.984688559997e-02 
  3.872452796088e-02 
  3.783266257612e-02 
  4.440138884137e-02 
  4.237282814421e-02 
  4.077213514047e-02 
  3.949928377542e-02 
  3.846299208791e-02 
  4.325292171388e-02 
  4.158019609173e-02 
  4.020946860517e-02 
  3.906982114623e-02 
  4.224680938878e-02 
  4.083373928755e-02 
  3.962921235304e-02 
  4.135406686757e-02 
  4.012782381510e-02 
  4.054942804387e-02 
  5.049910364085e-02 
  4.991934239688e-02 
  4.913804775908e-02 
  4.816288468075e-02 
  4.701020807260e-02 
  4.571851933816e-02 
  4.761612177052e-02 
  4.700491052869e-02 
  4.625049546833e-02 
  4.537350112969e-02 
  4.440119033164e-02 
  4.527798552742e-02 
  4.468567132289e-02 
  4.400523313847e-02 
  4.325323980906e-02 
  4.339126110339e-02 
  4.284614330208e-02 
  4.224655692746e-02 
  4.184972603084e-02 
  4.135405219017e-02 
  4.054823247261e-02 
  4.608865298657e-02 
  4.521216873608e-02 
  4.345676336561e-02 