# vtk DataFile Version 2
NuDG++ 2D simulation
ASCII
DATASET UNSTRUCTURED_GRID

POINTS 7854 double
 -1.656250060000e-01  -2.000000030000e-01  0.0
 -1.725000054000e-01  -1.908888817000e-01  0.0
 -1.793750048000e-01  -1.817777604000e-01  0.0
 -1.862500042000e-01  -1.726666391000e-01  0.0
 -1.931250036000e-01  -1.635555178000e-01  0.0
 -2.000000030000e-01  -1.544443965000e-01  0.0
 -1.725000054000e-01  -2.000000030000e-01  0.0
 -1.793750048000e-01  -1.908888817000e-01  0.0
 -1.862500042000e-01  -1.817777604000e-01  0.0
 -1.931250036000e-01  -1.726666391000e-01  0.0
 -2.000000030000e-01  -1.635555178000e-01  0.0
 -1.793750048000e-01  -2.000000030000e-01  0.0
 -1.862500042000e-01  -1.908888817000e-01  0.0
 -1.931250036000e-01  -1.817777604000e-01  0.0
 -2.000000030000e-01  -1.726666391000e-01  0.0
 -1.862500042000e-01  -2.000000030000e-01  0.0
 -1.931250036000e-01  -1.908888817000e-01  0.0
 -2.000000030000e-01  -1.817777604000e-01  0.0
 -1.931250036000e-01  -2.000000030000e-01  0.0
 -2.000000030000e-01  -1.908888817000e-01  0.0
 -2.000000030000e-01  -2.000000030000e-01  0.0
 -6.428571790000e-02  -1.700000018000e-01  0.0
 -7.080357372400e-02  -1.760000020400e-01  0.0
 -7.732142954800e-02  -1.820000022800e-01  0.0
 -8.383928537200e-02  -1.880000025200e-01  0.0
 -9.035714119600e-02  -1.940000027600e-01  0.0
 -9.687499702000e-02  -2.000000030000e-01  0.0
 -6.392857432000e-02  -1.760000020400e-01  0.0
 -7.044643014400e-02  -1.820000022800e-01  0.0
 -7.696428596800e-02  -1.880000025200e-01  0.0
 -8.348214179200e-02  -1.940000027600e-01  0.0
 -8.999999761600e-02  -2.000000030000e-01  0.0
 -6.357143074000e-02  -1.820000022800e-01  0.0
 -7.008928656400e-02  -1.880000025200e-01  0.0
 -7.660714238800e-02  -1.940000027600e-01  0.0
 -8.312499821200e-02  -2.000000030000e-01  0.0
 -6.321428716000e-02  -1.880000025200e-01  0.0
 -6.973214298400e-02  -1.940000027600e-01  0.0
 -7.624999880800e-02  -2.000000030000e-01  0.0
 -6.285714358000e-02  -1.940000027600e-01  0.0
 -6.937499940400e-02  -2.000000030000e-01  0.0
 -6.250000000000e-02  -2.000000030000e-01  0.0
 -2.000000030000e-01  -1.544443965000e-01  0.0
 -1.900000036000e-01  -1.478412374800e-01  0.0
 -1.800000042000e-01  -1.412380784600e-01  0.0
 -1.700000048000e-01  -1.346349194400e-01  0.0
 -1.600000054000e-01  -1.280317604200e-01  0.0
 -1.500000060000e-01  -1.214286014000e-01  0.0
 -2.000000030000e-01  -1.453332975600e-01  0.0
 -1.900000036000e-01  -1.387301385400e-01  0.0
 -1.800000042000e-01  -1.321269795200e-01  0.0
 -1.700000048000e-01  -1.255238205000e-01  0.0
 -1.600000054000e-01  -1.189206614800e-01  0.0
 -2.000000030000e-01  -1.362221986200e-01  0.0
 -1.900000036000e-01  -1.296190396000e-01  0.0
 -1.800000042000e-01  -1.230158805800e-01  0.0
 -1.700000048000e-01  -1.164127215600e-01  0.0
 -2.000000030000e-01  -1.271110996800e-01  0.0
 -1.900000036000e-01  -1.205079406600e-01  0.0
 -1.800000042000e-01  -1.139047816400e-01  0.0
 -2.000000030000e-01  -1.180000007400e-01  0.0
 -1.900000036000e-01  -1.113968417200e-01  0.0
 -2.000000030000e-01  -1.088889018000e-01  0.0
 -1.500000060000e-01  -1.214286014000e-01  0.0
 -1.600000054000e-01  -1.280317604200e-01  0.0
 -1.700000048000e-01  -1.346349194400e-01  0.0
 -1.800000042000e-01  -1.412380784600e-01  0.0
 -1.900000036000e-01  -1.478412374800e-01  0.0
 -2.000000030000e-01  -1.544443965000e-01  0.0
 -1.500000060000e-01  -1.311428814800e-01  0.0
 -1.600000054000e-01  -1.377460405000e-01  0.0
 -1.700000048000e-01  -1.443491995200e-01  0.0
 -1.800000042000e-01  -1.509523585400e-01  0.0
 -1.900000036000e-01  -1.575555175600e-01  0.0
 -1.500000060000e-01  -1.408571615600e-01  0.0
 -1.600000054000e-01  -1.474603205800e-01  0.0
 -1.700000048000e-01  -1.540634796000e-01  0.0
 -1.800000042000e-01  -1.606666386200e-01  0.0
 -1.500000060000e-01  -1.505714416400e-01  0.0
 -1.600000054000e-01  -1.571746006600e-01  0.0
 -1.700000048000e-01  -1.637777596800e-01  0.0
 -1.500000060000e-01  -1.602857217200e-01  0.0
 -1.600000054000e-01  -1.668888807400e-01  0.0
 -1.500000060000e-01  -1.700000018000e-01  0.0
 -1.500000060000e-01  -7.285714149000e-02  0.0
 -1.600000054000e-01  -8.006349355200e-02  0.0
 -1.700000048000e-01  -8.726984561400e-02  0.0
 -1.800000042000e-01  -9.447619767600e-02  0.0
 -1.900000036000e-01  -1.016825497380e-01  0.0
 -2.000000030000e-01  -1.088889018000e-01  0.0
 -1.500000060000e-01  -8.257143347200e-02  0.0
 -1.600000054000e-01  -8.977778553400e-02  0.0
 -1.700000048000e-01  -9.698413759600e-02  0.0
 -1.800000042000e-01  -1.041904896580e-01  0.0
 -1.900000036000e-01  -1.113968417200e-01  0.0
 -1.500000060000e-01  -9.228572545400e-02  0.0
 -1.600000054000e-01  -9.949207751600e-02  0.0
 -1.700000048000e-01  -1.066984295780e-01  0.0
 -1.800000042000e-01  -1.139047816400e-01  0.0
 -1.500000060000e-01  -1.020000174360e-01  0.0
 -1.600000054000e-01  -1.092063694980e-01  0.0
 -1.700000048000e-01  -1.164127215600e-01  0.0
 -1.500000060000e-01  -1.117143094180e-01  0.0
 -1.600000054000e-01  -1.189206614800e-01  0.0
 -1.500000060000e-01  -1.214286014000e-01  0.0
  1.832975030000e+00  -4.625000060000e-02  0.0
  1.841380024000e+00  -7.700000108000e-02  0.0
  1.849785018000e+00  -1.077500015600e-01  0.0
  1.858190012000e+00  -1.385000020400e-01  0.0
  1.866595006000e+00  -1.692500025200e-01  0.0
  1.875000000000e+00  -2.000000030000e-01  0.0
  1.866380024000e+00  -5.649999976400e-02  0.0
  1.874785018000e+00  -8.725000024400e-02  0.0
  1.883190012000e+00  -1.180000007240e-01  0.0
  1.891595006000e+00  -1.487500012040e-01  0.0
  1.900000000000e+00  -1.795000016840e-01  0.0
  1.899785018000e+00  -6.674999892800e-02  0.0
  1.908190012000e+00  -9.749999940800e-02  0.0
  1.916595006000e+00  -1.282499998880e-01  0.0
  1.925000000000e+00  -1.590000003680e-01  0.0
  1.933190012000e+00  -7.699999809200e-02  0.0
  1.941595006000e+00  -1.077499985720e-01  0.0
  1.950000000000e+00  -1.384999990520e-01  0.0
  1.966595006000e+00  -8.724999725600e-02  0.0
  1.975000000000e+00  -1.179999977360e-01  0.0
  2.000000000000e+00  -9.749999642000e-02  0.0
 -1.500000060000e-01  -1.700000018000e-01  0.0
 -1.444000050800e-01  -1.630000025200e-01  0.0
 -1.388000041600e-01  -1.560000032400e-01  0.0
 -1.332000032400e-01  -1.490000039600e-01  0.0
 -1.276000023200e-01  -1.420000046800e-01  0.0
 -1.220000014000e-01  -1.350000054000e-01  0.0
 -1.500000060000e-01  -1.602857217200e-01  0.0
 -1.444000050800e-01  -1.532857224400e-01  0.0
 -1.388000041600e-01  -1.462857231600e-01  0.0
 -1.332000032400e-01  -1.392857238800e-01  0.0
 -1.276000023200e-01  -1.322857246000e-01  0.0
 -1.500000060000e-01  -1.505714416400e-01  0.0
 -1.444000050800e-01  -1.435714423600e-01  0.0
 -1.388000041600e-01  -1.365714430800e-01  0.0
 -1.332000032400e-01  -1.295714438000e-01  0.0
 -1.500000060000e-01  -1.408571615600e-01  0.0
 -1.444000050800e-01  -1.338571622800e-01  0.0
 -1.388000041600e-01  -1.268571630000e-01  0.0
 -1.500000060000e-01  -1.311428814800e-01  0.0
 -1.444000050800e-01  -1.241428822000e-01  0.0
 -1.500000060000e-01  -1.214286014000e-01  0.0
  2.849999964000e-01  -2.333333530000e-02  0.0
  2.844999968800e-01  -4.666666836000e-02  0.0
  2.839999973600e-01  -7.000000142000e-02  0.0
  2.834999978400e-01  -9.333333448000e-02  0.0
  2.829999983200e-01  -1.166666675400e-01  0.0
  2.824999988000e-01  -1.400000006000e-01  0.0
  2.979999959200e-01  -3.266666830000e-02  0.0
  2.974999964000e-01  -5.600000136000e-02  0.0
  2.969999968800e-01  -7.933333442000e-02  0.0
  2.964999973600e-01  -1.026666674800e-01  0.0
  2.959999978400e-01  -1.260000005400e-01  0.0
  3.109999954400e-01  -4.200000130000e-02  0.0
  3.104999959200e-01  -6.533333436000e-02  0.0
  3.099999964000e-01  -8.866666742000e-02  0.0
  3.094999968800e-01  -1.120000004800e-01  0.0
  3.239999949600e-01  -5.133333430000e-02  0.0
  3.234999954400e-01  -7.466666736000e-02  0.0
  3.229999959200e-01  -9.800000042000e-02  0.0
  3.369999944800e-01  -6.066666730000e-02  0.0
  3.364999949600e-01  -8.400000036000e-02  0.0
  3.499999940000e-01  -7.000000030000e-02  0.0
 -1.071429029000e-01  -1.700000018000e-01  0.0
 -9.857146590000e-02  -1.700000018000e-01  0.0
 -9.000002890000e-02  -1.700000018000e-01  0.0
 -8.142859190000e-02  -1.700000018000e-01  0.0
 -7.285715490000e-02  -1.700000018000e-01  0.0
 -6.428571790000e-02  -1.700000018000e-01  0.0
 -1.037143230360e-01  -1.630000025200e-01  0.0
 -9.514288603600e-02  -1.630000025200e-01  0.0
 -8.657144903600e-02  -1.630000025200e-01  0.0
 -7.800001203600e-02  -1.630000025200e-01  0.0
 -6.942857503600e-02  -1.630000025200e-01  0.0
 -1.002857431720e-01  -1.560000032400e-01  0.0
 -9.171430617200e-02  -1.560000032400e-01  0.0
 -8.314286917200e-02  -1.560000032400e-01  0.0
 -7.457143217200e-02  -1.560000032400e-01  0.0
 -9.685716330800e-02  -1.490000039600e-01  0.0
 -8.828572630800e-02  -1.490000039600e-01  0.0
 -7.971428930800e-02  -1.490000039600e-01  0.0
 -9.342858344400e-02  -1.420000046800e-01  0.0
 -8.485714644400e-02  -1.420000046800e-01  0.0
 -9.000000358000e-02  -1.350000054000e-01  0.0
 -1.312499940000e-01  -2.000000030000e-01  0.0
 -1.264285757800e-01  -1.940000027600e-01  0.0
 -1.216071575600e-01  -1.880000025200e-01  0.0
 -1.167857393400e-01  -1.820000022800e-01  0.0
 -1.119643211200e-01  -1.760000020400e-01  0.0
 -1.071429029000e-01  -1.700000018000e-01  0.0
 -1.349999964000e-01  -1.940000027600e-01  0.0
 -1.301785781800e-01  -1.880000025200e-01  0.0
 -1.253571599600e-01  -1.820000022800e-01  0.0
 -1.205357417400e-01  -1.760000020400e-01  0.0
 -1.157143235200e-01  -1.700000018000e-01  0.0
 -1.387499988000e-01  -1.880000025200e-01  0.0
 -1.339285805800e-01  -1.820000022800e-01  0.0
 -1.291071623600e-01  -1.760000020400e-01  0.0
 -1.242857441400e-01  -1.700000018000e-01  0.0
 -1.425000012000e-01  -1.820000022800e-01  0.0
 -1.376785829800e-01  -1.760000020400e-01  0.0
 -1.328571647600e-01  -1.700000018000e-01  0.0
 -1.462500036000e-01  -1.760000020400e-01  0.0
 -1.414285853800e-01  -1.700000018000e-01  0.0
 -1.500000060000e-01  -1.700000018000e-01  0.0
[...]
POINT_DATA 7854
SCALARS field1 double 1
LOOKUP_TABLE default
 -4.746213782242e-06 
  1.571186129195e-02 
  1.929891040332e-02 
  2.038989252184e-02 
  2.279380657979e-02 
  2.692029238626e-02 
 -3.042472014968e-06 
  1.295076846817e-02 
  1.591249604320e-02 
  1.799737628467e-02 
  2.207076941851e-02 
  2.168012394010e-06 
  9.921780440374e-03 
  1.297637605080e-02 
  1.696133585284e-02 
  6.536995265856e-06 
  7.198397515714e-03 
  1.157979231110e-02 
 -3.086693239117e-06 
  5.920389714974e-03 
  2.139430159631e-06 
  5.209419559586e-02 
  4.982970887208e-02 
  4.578345110712e-02 
  3.812988471646e-02 
  2.407755183688e-02 
 -4.876601634794e-07 
  5.073756486020e-02 
  4.668356022566e-02 
  3.894710001673e-02 
  2.463720303307e-02 
 -1.866051382529e-07 
  4.752483911270e-02 
  3.971154330358e-02 
  2.516521440313e-02 
 -2.134082439139e-07 
  4.042537888641e-02 
  2.565970203769e-02 
 -2.088913688107e-07 
  2.611902949564e-02 
 -1.038723117299e-07 
 -3.204185447768e-07 
  2.692245261788e-02 
  3.097435522525e-02 
  3.528532045957e-02 
  3.903036637839e-02 
  4.205118882154e-02 
  4.448957871409e-02 
  3.149860697453e-02 
  3.507714777742e-02 
  3.867851863923e-02 
  4.177826764861e-02 
  4.425767636555e-02 
  3.580569204073e-02 
  3.895255431500e-02 
  4.192691263432e-02 
  4.440921914877e-02 
  3.984304421963e-02 
  4.259964796154e-02 
  4.499117809869e-02 
  4.361102282237e-02 
  4.599954341529e-02 
  4.711228943757e-02 
  4.448835483335e-02 
  4.205137285444e-02 
  3.902918740554e-02 
  3.528594556000e-02 
  3.097371080124e-02 
  2.692463789680e-02 
  4.257550551157e-02 
  3.963984534689e-02 
  3.600756564425e-02 
  3.153644705481e-02 
  2.643233423102e-02 
  4.062652513006e-02 
  3.722834582461e-02 
  3.299256868073e-02 
  2.774254503984e-02 
  3.874731617701e-02 
  3.491296002240e-02 
  3.005756322803e-02 
  3.700398044326e-02 
  3.269138122969e-02 
  3.522155611497e-02 
  5.199686968091e-02 
  5.207285718411e-02 
  5.170383306316e-02 
  5.082596851395e-02 
  4.933550268964e-02 
  4.711350412534e-02 
  5.087779502626e-02 
  5.041005617388e-02 
  4.948227947621e-02 
  4.802842433020e-02 
  4.599917199240e-02 
  4.952870148984e-02 
  4.854553984337e-02 
  4.704972905038e-02 
  4.499058289865e-02 
  4.799423681754e-02 
  4.649168328139e-02 
  4.440916095796e-02 
  4.630169527672e-02 
  4.425833668060e-02 
  4.448742912727e-02 
  5.347812590896e-02 
  4.318842917740e-02 
  4.495728064904e-02 
  4.607689809769e-02 
  4.937811378881e-02 
  4.313808329871e-04 
  4.712350242017e-02 
  4.707816910520e-02 
  4.611507953428e-02 
  4.655728254103e-02 
  4.319828662175e-02 
  4.696834565320e-02 
  4.733299071599e-02 
  4.593941722648e-02 
  4.694766199931e-02 
  4.694776191256e-02 
  4.654070300330e-02 
  4.517698286255e-02 
  4.736535950194e-02 
  4.506536668829e-02 
  4.907135000185e-02 
  3.522193301481e-02 
  3.802406999570e-02 
  4.037219508015e-02 
  4.242444599868e-02 
  4.424956367225e-02 
  4.585510993014e-02 
  3.700272326487e-02 
  3.952099333707e-02 
  4.173084545826e-02 
  4.367271634907e-02 
  4.537393567017e-02 
  3.874704425474e-02 
  4.112418929000e-02 
  4.319091952141e-02 
  4.497392944692e-02 
  4.062626242385e-02 
  4.281544530374e-02 
  4.468476006759e-02 
  4.257398134200e-02 
  4.451252192405e-02 
  4.448811313587e-02 
  4.791646902313e-02 
  4.646684906187e-02 
  4.711686661172e-02 
  4.723654720634e-02 
  4.728201396712e-02 
  4.890724363519e-02 
  4.686957989321e-02 
  4.690235314407e-02 
  4.719348840937e-02 
  4.712361114184e-02 
  4.732002595417e-02 
  4.697885487836e-02 
  4.713789228465e-02 
  4.720509235729e-02 
  4.707714759619e-02 
  4.744165544796e-02 
  4.719790750810e-02 
  4.716624863651e-02 
  4.740874654838e-02 
  4.729138043799e-02 
  4.691307054605e-02 
  4.531071360047e-02 
  4.686375193687e-02 
  4.830447361115e-02 
  4.965564145146e-02 
  5.091704371858e-02 
  5.209652355355e-02 
  4.667214012270e-02 
  4.814748964255e-02 
  4.954149185182e-02 
  5.085605148552e-02 
  5.209214019348e-02 
  4.772530793575e-02 
  4.912953817193e-02 
  5.047404629670e-02 
  5.176083649967e-02 
  4.869363227194e-02 
  5.003667998542e-02 
  5.134687390886e-02 
  4.962468434281e-02 
  5.092658399699e-02 
  5.053249013269e-02 
  7.967685824599e-07 
  2.041533269105e-02 
  3.256109377731e-02 
  3.936084458523e-02 
  4.310939892712e-02 
  4.531121080713e-02 
  1.929039225553e-02 
  3.093961719470e-02 
  3.759206615951e-02 
  4.135687798215e-02 
  4.365997422666e-02 
  2.911356278471e-02 
  3.562511642805e-02 
  3.943420608322e-02 
  4.185258016448e-02 
  3.340908486395e-02 
  3.729573371211e-02 
  3.987098292691e-02 
  3.488862850619e-02 
  3.767542666029e-02 
  3.522183634976e-02 
  4.585845194388e-02 
  4.678745109662e-02 
  4.771153507790e-02 
  4.864303634476e-02 
  4.957926265610e-02 
  5.053186141689e-02 
  4.675131094299e-02 
  4.757169974135e-02 
  4.841308880839e-02 
  4.927969062388e-02 
  5.017260614305e-02 
  4.756366616868e-02 
  4.828856610439e-02 
  4.905217603640e-02 
  4.986103440850e-02 
  4.828477147277e-02 
  4.891699140138e-02 
  4.960884316205e-02 
  4.889443059232e-02 
  4.943606062209e-02 
  4.936062121105e-02 
  5.053161762931e-02 
  4.957943131196e-02 
  4.864300376845e-02 
  4.771163393384e-02 
  4.678747270736e-02 
  4.585876647820e-02 
  4.962519261918e-02 
  4.864569544630e-02 
  4.765665090994e-02 
  4.665591619654e-02 
  4.563906417751e-02 
  4.869352596514e-02 
  4.766289164906e-02 
  4.660663984708e-02 
  4.552086697161e-02 
  4.772561519191e-02 
  4.663348048793e-02 
  4.549857602074e-02 
  4.667230401876e-02 
  4.551031262707e-02 
  4.531160162525e-02 
  5.341354384662e-02 
  5.228558877971e-02 
  5.136268108143e-02 
  5.059432605552e-02 
  4.994086905117e-02 
  4.936071968977e-02 
  5.315867316706e-02 
  5.204081243214e-02 
  5.107222431362e-02 
  5.021413107142e-02 
  4.943598922988e-02 
  5.268356062836e-02 
  5.156971352632e-02 
  5.055365488173e-02 
  4.960880875884e-02 
  5.205609509471e-02 
  5.093117915991e-02 
  4.986098484040e-02 
  5.132462350966e-02 
  5.017248163315e-02 
  5.053228639078e-02 
  4.585735271289e-02 
  4.675135550517e-02 
  4.756360289142e-02 
  4.828472222200e-02 
  4.889459286322e-02 
  4.936031401791e-02 
  4.537348674983e-02 
  4.634902085003e-02 
  4.723878427691e-02 
  4.802296204556e-02 
  4.868167362488e-02 
  4.497424339116e-02 
  4.604884191586e-02 
  4.702302642247e-02 
  4.787991458768e-02 
  4.468404057625e-02 
  4.586347662036e-02 
  4.693092284519e-02 
  4.451256187919e-02 
  4.580719853482e-02 
  4.448697144488e-02 
  5.341308707892e-02 
  5.315866976807e-02 
  5.268352087698e-02 
  5.205614206291e-02 
  5.132445580735e-02 
  5.053323117109e-02 
  5.435631475579e-02 
  5.389956103809e-02 
  5.328761420405e-02 
  5.257572990971e-02 
  5.180074115695e-02 
  5.526303365442e-02 
  5.461418756838e-02 
  5.387538357108e-02 
  5.308987677288e-02 
  5.610031603855e-02 
  5.527931227704e-02 
  5.443168262609e-02 
  5.684846380714e-02 
  5.587854518272e-02 
  5.748797475543e-02 
  4.531155496087e-02 
  4.551069998550e-02 
  4.549885401201e-02 
  4.552090825925e-02 
  4.563909688158e-02 
  4.585740624778e-02 
  4.366022381998e-02 
  4.386036101692e-02 
  4.390073220897e-02 
  4.401096568966e-02 
  4.424925353596e-02 
  4.185271397444e-02 
  4.208190101096e-02 
  4.219770742680e-02 
  4.242458661286e-02 
  3.987117669655e-02 
  4.014609429865e-02 
  4.037161504379e-02 
  3.767559075335e-02 
  3.802375882084e-02 
  3.522181413283e-02 
 -1.843988344077e-08 
 -1.866399758253e-07 
 -1.154064266088e-07 
 -2.259021439916e-07 
 -1.770312523679e-07 
 -7.827789769255e-07 
  2.856397279720e-02 
  2.848125403110e-02 
  2.825214495553e-02 
  2.790876473639e-02 
  2.748880868981e-02 
  4.427063134917e-02 
  4.410738810031e-02 
  4.371955332350e-02 
  4.316436124080e-02 
  5.211699800285e-02 
  5.186542735507e-02 
  5.136306717228e-02 
  5.569336885429e-02 
  5.534246048473e-02 
  5.721353888689e-02 
  5.199604986749e-02 
  5.087644008135e-02 
  4.952840344978e-02 
  4.799474118463e-02 
  4.630196314251e-02 
  4.448705098419e-02 
  5.084433271014e-02 
  4.984856892478e-02 
  4.866318878707e-02 
  4.730702740337e-02 
  4.580708156968e-02 
  5.001304507067e-02 
  4.915736468071e-02 
  4.812138037882e-02 
  4.693106937118e-02 
  4.949540446140e-02 
  4.877613050073e-02 
  4.788009730858e-02 
  4.929221639138e-02 
  4.868168285832e-02 
  4.935999895911e-02 
  6.057094747037e-02 
  5.933042416028e-02 
  5.727532667042e-02 
  5.520758412032e-02 
  5.343028317385e-02 
  5.199811145394e-02 
  6.128116638815e-02 
  5.905194336733e-02 
  5.673803661459e-02 
  5.467660807946e-02 
  5.292082661864e-02 
  6.056569025820e-02 
  5.802162601286e-02 
  5.569982588435e-02 
  5.366464195059e-02 
  5.908440557470e-02 
  5.652565247366e-02 
  5.423758571049e-02 
  5.717865084943e-02 
  5.465976738689e-02 
  5.495900017063e-02 
  6.057173784021e-02 
  5.841705697525e-02 
  5.599482618180e-02 
  5.330422578016e-02 
  5.034333523735e-02 
  4.711223028057e-02 
  5.933036691821e-02 
  5.721727023046e-02 
  5.484503713256e-02 
  5.221912552640e-02 
  4.933528500791e-02 
  5.727631560252e-02 
  5.536055296435e-02 
  5.320331959498e-02 
  5.082533413246e-02 
  5.520672651055e-02 
  5.356245852009e-02 
  5.170508061901e-02 
  5.342978546493e-02 
  5.207308511154e-02 
  5.199844271024e-02 
  6.057145187847e-02 
  6.128034206404e-02 
  6.056526837582e-02 
  5.908465371656e-02 
  5.717916828998e-02 
  5.495820972483e-02 
  6.245682460581e-02 
  6.285092045519e-02 
  6.174258031080e-02 
  5.987490735168e-02 
  5.764206340086e-02 
  6.407162749302e-02 
  6.416899537785e-02 
  6.269862219960e-02 
  6.048428931287e-02 
  6.541648094425e-02 
  6.522922539123e-02 
  6.342699545868e-02 
  6.649336547413e-02 
  6.603721503041e-02 
  6.730019610688e-02 
  5.496028659137e-02 
  5.465886723956e-02 
  5.423744027295e-02 
  5.366544120602e-02 
  5.292196627596e-02 
  5.199561199922e-02 
  5.271799408993e-02 
  5.261764609597e-02 
  5.244094627841e-02 
  5.213901241697e-02 
  5.167111101270e-02 
  5.059078510123e-02 
  5.074956513539e-02 
  5.085975386786e-02 
  5.085483994421e-02 
  4.855636509726e-02 
  4.905001557974e-02 
  4.950759109299e-02 
  4.661628634109e-02 
  4.753412033950e-02 
  4.479748266692e-02 
  4.319544322284e-02 
  4.595158653483e-02 
  4.848971444707e-02 
  5.081464520488e-02 
  5.296092228787e-02 
  5.496051451441e-02 
  4.299957675694e-02 
  4.587437308384e-02 
  4.841278949992e-02 
  5.067942689688e-02 
  5.271783510510e-02 
  4.309068988944e-02 
  4.596951324886e-02 
  4.844040109748e-02 
  5.059069908075e-02 
  4.344296459630e-02 
  4.622519602026e-02 
  4.855651846814e-02 
  4.402500274045e-02 
  4.661633333532e-02 
  4.479746078171e-02 
  5.496057055691e-02 
  5.516565628156e-02 
  5.532729593910e-02 
  5.543003981883e-02 
  5.547869052157e-02 
  5.547316288276e-02 
  5.764175545707e-02 
  5.799908972354e-02 
  5.822236653583e-02 
  5.831728274750e-02 
  5.829578932531e-02 
  6.048559585099e-02 
  6.095108253044e-02 
  6.121751727509e-02 
  6.129510759004e-02 
  6.342602089166e-02 
  6.395995330059e-02 
  6.425133240798e-02 
  6.603769757448e-02 
  6.660709799421e-02 
  6.729777829470e-02 
  5.199410436636e-02 
  5.107205763319e-02 
  5.026015749384e-02 
  4.958404561067e-02 
  4.907706403741e-02 
  4.884585717283e-02 
  5.167147004683e-02 
  5.053730429856e-02 
  4.950789544326e-02 
  4.859606496038e-02 
  4.787017701357e-02 
  5.085448910031e-02 
  4.947513904380e-02 
  4.815607531700e-02 
  4.692210434104e-02 
  4.950734536096e-02 
  4.779118472385e-02 
  4.605579667088e-02 
  4.753406967922e-02 
  4.533159366609e-02 
  4.479771460899e-02 
  4.987051238070e-02 
  4.757480929584e-02 
  4.669459659781e-02 
  4.689172952665e-02 
  4.805473716836e-02 
  4.870606040257e-02 
  4.711285081228e-02 
  4.716215716736e-02 
  4.719513459601e-02 
  4.807668550466e-02 
  4.959879192966e-02 
  4.701124558250e-02 
  4.674114209317e-02 
  4.652672014126e-02 
  4.617309907617e-02 
  4.614654462338e-02 
  4.689076945672e-02 
  4.576766453318e-02 
  3.810793219839e-02 
  4.379605992239e-02 
  1.966098752488e-04 
  4.237665127780e-02 
  4.452983119355e-02 
  4.609979981274e-02 
  4.728429229940e-02 
  4.817607265460e-02 
  4.885039155232e-02 
  4.456774620035e-02 
  4.624272808043e-02 
  4.744180167013e-02 
  4.833066793109e-02 
  4.897788039723e-02 
  4.691998809567e-02 
  4.807829925204e-02 
  4.887400296699e-02 
  4.944405837001e-02 
  4.935862983509e-02 
  4.997813589048e-02 
  5.035349088557e-02 
  5.179984800470e-02 
  5.187983517796e-02 
  5.416412609052e-02 
  4.884557846069e-02 
  4.907709948224e-02 
  4.958395522557e-02 
  5.026038659503e-02 
  5.107202634769e-02 
  5.199460524602e-02 
  4.959029546763e-02 
  4.959489332878e-02 
  4.984867737528e-02 
  5.027902238955e-02 
  5.084412914913e-02 
  4.996889529477e-02 
  4.977697888804e-02 
  4.981386895835e-02 
  5.001250295451e-02 
  5.002698664483e-02 
  4.966654789366e-02 
  4.949572812485e-02 
  4.981597546248e-02 
  4.929204551213e-02 
  4.936060643823e-02 
  1.727624022237e-02 
  2.130591503250e-02 
  2.483087185330e-02 
  2.789723939112e-02 
  3.057510558459e-02 
  3.293908813614e-02 
  1.884311195558e-02 
  2.274944748084e-02 
  2.613385834616e-02 
  2.905543810813e-02 
  3.157976016880e-02 
  2.083994862519e-02 
  2.463115662947e-02 
  2.781596491863e-02 
  3.052972852983e-02 
  2.331408416716e-02 
  2.691507731806e-02 
  2.984342705787e-02 
  2.626053702883e-02 
  2.956570087297e-02 
  2.960351133649e-02 
  3.293597769501e-02 
  3.617471750826e-02 
  3.887104331535e-02 
  4.114260753714e-02 
  4.309205393382e-02 
  4.479882159337e-02 
  3.419408111588e-02 
  3.718952532994e-02 
  3.966286729699e-02 
  4.175007694188e-02 
  4.353736462310e-02 
  3.584931467971e-02 
  3.848865678613e-02 
  4.067235494888e-02 
  4.252497624704e-02 
  3.782737614812e-02 
  4.003191470481e-02 
  4.186732191943e-02 
  4.003295829695e-02 
  4.175762187704e-02 
  4.237827435655e-02 
  4.237477190709e-02 
  4.092102717803e-02 
  3.906767344077e-02 
  3.672266040432e-02 
  3.366081119189e-02 
  2.960428972757e-02 
  4.003212537199e-02 
  3.817818571882e-02 
  3.591299615570e-02 
  3.310161781108e-02 
  2.956572541307e-02 
  3.782732797674e-02 
  3.564186456301e-02 
  3.301681460129e-02 
  2.984328177217e-02 
  3.584902253650e-02 
  3.341295590164e-02 
  3.052945003793e-02 
  3.419337454045e-02 
  3.157995656629e-02 
  3.293866193016e-02 
  3.293481086734e-02 
  3.431081802106e-02 
  3.627960488209e-02 
  3.853233020785e-02 
  4.087287958349e-02 
  4.319454646365e-02 
  3.617503950120e-02 
  3.734358860560e-02 
  3.900814738708e-02 
  4.094607602687e-02 
  4.299929116534e-02 
  3.887109494408e-02 
  3.990552341527e-02 
  4.137075054569e-02 
  4.309020926366e-02 
  4.114241452513e-02 
  4.210676911957e-02 
  4.344272486229e-02 
  4.309220858845e-02 
  4.402504925437e-02 
  4.479758060167e-02 
  5.341357119057e-02 
  5.384801878842e-02 
  5.418839192871e-02 
  5.441442089958e-02 
  5.446455910332e-02 
  5.416502376438e-02 
  5.256163167359e-02 
  5.272350039485e-02 
  5.271016208958e-02 
  5.246290993988e-02 
  5.187968682879e-02 
  5.163679850958e-02 
  5.149999024674e-02 
  5.110223680361e-02 
  5.035373595432e-02 
  5.067974128220e-02 
  5.023263302788e-02 
  4.944385711382e-02 
  4.973273275968e-02 
  4.897798947896e-02 
  4.884972165008e-02 
  4.237961165872e-02 
  4.175727727218e-02 
  4.186763867147e-02 
  4.252485970796e-02 
  4.353748826673e-02 
  4.479840963590e-02 
  4.452939634102e-02 
  4.392551427571e-02 
  4.396839145941e-02 
  4.448033406791e-02 
  4.533233014792e-02 
  4.610019003282e-02 
  4.559299459644e-02 
  4.561929092569e-02 
  4.605654857844e-02 
  4.728412687634e-02 
  4.687913770871e-02 
  4.692300058808e-02 
  4.817633676309e-02 
  4.787055612642e-02 
  4.884820082430e-02 
  5.341408660113e-02 
  5.256133462515e-02 
  5.163647981872e-02 
  5.067913126986e-02 
  4.973234305839e-02 
  4.884710358237e-02 
  5.228554784222e-02 
  5.161454001439e-02 
  5.092116335978e-02 
  5.023443563874e-02 
  4.959009971102e-02 
  5.136283550100e-02 
  5.087695442350e-02 
  5.040434665504e-02 
  4.996903506112e-02 
  5.059422772840e-02 
  5.029102793963e-02 
  5.002693914180e-02 
  4.994100768653e-02 
  4.981638198867e-02 
  4.936024870832e-02 
  3.293718254773e-02 
  3.057563676841e-02 
  2.789700520191e-02 
  2.483052119555e-02 
  2.130594609080e-02 
  1.727733638224e-02 
  3.135932727295e-02 
  2.879704320785e-02 
  2.588090301409e-02 
  2.256516083755e-02 
  1.881987070965e-02 
  3.016825050077e-02 
  2.746980045328e-02 
  2.442114603346e-02 
  2.098618596025e-02 
  2.941029381740e-02 
  2.666911675095e-02 
  2.360235842878e-02 
  2.911635000815e-02 
  2.642836975067e-02 
  2.927649134907e-02 
  5.748913528667e-02 
  5.587859335537e-02 
  5.443204971953e-02 
  5.308976575261e-02 
  5.180095095017e-02 
  5.053268835983e-02 
  5.630118550300e-02 
  5.486840000182e-02 
  5.351785970013e-02 
  5.221437764897e-02 
  5.092698818041e-02 
  5.519698091558e-02 
  5.388412804224e-02 
  5.260966700851e-02 
  5.134682966230e-02 
  5.421032372256e-02 
  5.299452667342e-02 
  5.176136779351e-02 
  5.333528000258e-02 
  5.209217778975e-02 
  5.210037989053e-02 
  5.358002420724e-02 
  4.699569839474e-02 
  4.694450392566e-02 
  4.693455089352e-02 
  4.733260918327e-02 
  4.921300258435e-02 
  4.833176872087e-02 
  4.702542457951e-02 
  4.713575535403e-02 
  4.720216956176e-02 
  4.726729865231e-02 
  4.704441523940e-02 
  4.732413023246e-02 
  4.721240028240e-02 
  4.752563353411e-02 
  4.663362687854e-02 
  4.690863417540e-02 
  4.983830128674e-02 
  4.764795500357e-02 
  4.987821321123e-02 
  4.938199587430e-02 
  6.042030137397e-02 
  5.942459624040e-02 
  5.858871301435e-02 
  5.790312514378e-02 
  5.730305963083e-02 
  5.637765623178e-02 
  6.092590960270e-02 
  5.984693274219e-02 
  5.895013560664e-02 
  5.822798766769e-02 
  5.758291177404e-02 
  6.131271398145e-02 
  6.016159929858e-02 
  5.922286192058e-02 
  5.847223137028e-02 
  6.156609757682e-02 
  6.036635676715e-02 
  5.940367983045e-02 
  6.168485674754e-02 
  6.046042930102e-02 
  6.166934354547e-02 
  6.041963465490e-02 
  6.006708835189e-02 
  5.959164879458e-02 
  5.899513555278e-02 
  5.828659659230e-02 
  5.748809616535e-02 
  5.846262608700e-02 
  5.804719898057e-02 
  5.754368274425e-02 
  5.695977998123e-02 
  5.630124027083e-02 
  5.678354611542e-02 
  5.631068906974e-02 
  5.577991228371e-02 
  5.519677180959e-02 
  5.529679866777e-02 
  5.477876930478e-02 
  5.421035938952e-02 
  5.386437340155e-02 
  5.333497755596e-02 
  5.210139185677e-02 
  5.341310941772e-02 
  5.471808244390e-02 
  5.635995940715e-02 
  5.848508462548e-02 
  6.125269123313e-02 
  6.479918978384e-02 
  5.384775319149e-02 
  5.528515188246e-02 
  5.717829822754e-02 
  5.970568860591e-02 
  6.300071059663e-02 
  5.418800137297e-02 
  5.580940331950e-02 
  5.802506395520e-02 
  6.099242084583e-02 
  5.441417585046e-02 
  5.626086389780e-02 
  5.881097934627e-02 
  5.446463035545e-02 
  5.651289216445e-02 
  5.416352281560e-02 
  6.479950436820e-02 
  6.125274271941e-02 
  5.848519965462e-02 
  5.636001257836e-02 
  5.471816473099e-02 
  5.341296096256e-02 
  6.302531525886e-02 
  6.007428242460e-02 
  5.773396729515e-02 
  5.587172360900e-02 
  5.435587118243e-02 
  6.138643183161e-02 
  5.893772426309e-02 
  5.693091153698e-02 
  5.526264066784e-02 
  5.993497620767e-02 
  5.786414952477e-02 
  5.609966584182e-02 
  5.864473845168e-02 
  5.684770732589e-02 
  5.748639358617e-02 
  7.189416351534e-02 
  7.101300300887e-02 
  6.984058974934e-02 
  6.839147737050e-02 
  6.669358857470e-02 
  6.480196736578e-02 
  6.779764745803e-02 
  6.688345348298e-02 
  6.576178442558e-02 
  6.446283824001e-02 
  6.302506328016e-02 
  6.439498230718e-02 
  6.351253471990e-02 
  6.250184947928e-02 
  6.138676179015e-02 
  6.163608600390e-02 
  6.082494626398e-02 
  5.993466821243e-02 
  5.938142277576e-02 
  5.864465035410e-02 
  5.748507029858e-02 
  6.198665274147e-02 
  6.188319759527e-02 
  6.026440249028e-02 