# vtk DataFile Version 2
NuDG++ 2D simulation
ASCII
DATASET UNSTRUCTURED_GRID

POINTS 13286 double
 -1.000000000000e+00  -7.500000000000e-01  0.0
 -1.000000000000e+00  -7.708333333333e-01  0.0
 -1.000000000000e+00  -7.916666666667e-01  0.0
 -1.000000000000e+00  -8.125000000000e-01  0.0
 -1.000000000000e+00  -8.333333333333e-01  0.0
 -1.000000000000e+00  -8.541666666667e-01  0.0
 -1.000000000000e+00  -8.750000000000e-01  0.0
 -1.000000000000e+00  -8.958333333333e-01  0.0
 -1.000000000000e+00  -9.166666666667e-01  0.0
 -1.000000000000e+00  -9.375000000000e-01  0.0
 -1.000000000000e+00  -9.583333333333e-01  0.0
 -1.000000000000e+00  -9.791666666667e-01  0.0
 -1.000000000000e+00  -1.000000000000e+00  0.0
 -9.854429568065e-01  -7.562054016279e-01  0.0
 -9.854429568065e-01  -7.770387349612e-01  0.0
 -9.854429568065e-01  -7.978720682946e-01  0.0
 -9.854429568065e-01  -8.187054016279e-01  0.0
 -9.854429568065e-01  -8.395387349612e-01  0.0
 -9.854429568065e-01  -8.603720682946e-01  0.0
 -9.854429568065e-01  -8.812054016279e-01  0.0
 -9.854429568065e-01  -9.020387349613e-01  0.0
 -9.854429568065e-01  -9.228720682946e-01  0.0
 -9.854429568065e-01  -9.437054016279e-01  0.0
 -9.854429568065e-01  -9.645387349612e-01  0.0
 -9.854429568065e-01  -9.853720682946e-01  0.0
 -9.708859136130e-01  -7.624108032558e-01  0.0
 -9.708859136130e-01  -7.832441365892e-01  0.0
 -9.708859136130e-01  -8.040774699225e-01  0.0
 -9.708859136130e-01  -8.249108032558e-01  0.0
 -9.708859136130e-01  -8.457441365892e-01  0.0
 -9.708859136130e-01  -8.665774699225e-01  0.0
 -9.708859136130e-01  -8.874108032558e-01  0.0
 -9.708859136130e-01  -9.082441365892e-01  0.0
 -9.708859136130e-01  -9.290774699225e-01  0.0
 -9.708859136130e-01  -9.499108032558e-01  0.0
 -9.708859136130e-01  -9.707441365892e-01  0.0
 -9.563288704195e-01  -7.686162048838e-01  0.0
 -9.563288704195e-01  -7.894495382171e-01  0.0
 -9.563288704195e-01  -8.102828715504e-01  0.0
 -9.563288704195e-01  -8.311162048838e-01  0.0
 -9.563288704195e-01  -8.519495382171e-01  0.0
 -9.563288704195e-01  -8.727828715504e-01  0.0
 -9.563288704195e-01  -8.936162048838e-01  0.0
 -9.563288704195e-01  -9.144495382171e-01  0.0
 -9.563288704195e-01  -9.352828715504e-01  0.0
 -9.563288704195e-01  -9.561162048838e-01  0.0
 -9.417718272260e-01  -7.748216065117e-01  0.0
 -9.417718272260e-01  -7.956549398450e-01  0.0
 -9.417718272260e-01  -8.164882731783e-01  0.0
 -9.417718272260e-01  -8.373216065117e-01  0.0
 -9.417718272260e-01  -8.581549398450e-01  0.0
 -9.417718272260e-01  -8.789882731783e-01  0.0
 -9.417718272260e-01  -8.998216065117e-01  0.0
 -9.417718272260e-01  -9.206549398450e-01  0.0
 -9.417718272260e-01  -9.414882731783e-01  0.0
 -9.272147840325e-01  -7.810270081396e-01  0.0
 -9.272147840325e-01  -8.018603414729e-01  0.0
 -9.272147840325e-01  -8.226936748063e-01  0.0
 -9.272147840325e-01  -8.435270081396e-01  0.0
 -9.272147840325e-01  -8.643603414729e-01  0.0
 -9.272147840325e-01  -8.851936748062e-01  0.0
 -9.272147840325e-01  -9.060270081396e-01  0.0
 -9.272147840325e-01  -9.268603414729e-01  0.0
 -9.126577408390e-01  -7.872324097675e-01  0.0
 -9.126577408390e-01  -8.080657431008e-01  0.0
 -9.126577408390e-01  -8.288990764342e-01  0.0
 -9.126577408390e-01  -8.497324097675e-01  0.0
 -9.126577408390e-01  -8.705657431008e-01  0.0
 -9.126577408390e-01  -8.913990764342e-01  0.0
 -9.126577408390e-01  -9.122324097675e-01  0.0
 -8.981006976455e-01  -7.934378113954e-01  0.0
 -8.981006976455e-01  -8.142711447287e-01  0.0
 -8.981006976455e-01  -8.351044780621e-01  0.0
 -8.981006976455e-01  -8.559378113954e-01  0.0
 -8.981006976455e-01  -8.767711447288e-01  0.0
 -8.981006976455e-01  -8.976044780621e-01  0.0
 -8.835436544520e-01  -7.996432130233e-01  0.0
 -8.835436544520e-01  -8.204765463567e-01  0.0
 -8.835436544520e-01  -8.413098796900e-01  0.0
 -8.835436544520e-01  -8.621432130233e-01  0.0
 -8.835436544520e-01  -8.829765463567e-01  0.0
 -8.689866112585e-01  -8.058486146512e-01  0.0
 -8.689866112585e-01  -8.266819479846e-01  0.0
 -8.689866112585e-01  -8.475152813179e-01  0.0
 -8.689866112585e-01  -8.683486146513e-01  0.0
 -8.544295680650e-01  -8.120540162792e-01  0.0
 -8.544295680650e-01  -8.328873496125e-01  0.0
 -8.544295680650e-01  -8.537206829458e-01  0.0
 -8.398725248715e-01  -8.182594179071e-01  0.0
 -8.398725248715e-01  -8.390927512404e-01  0.0
 -8.253154816780e-01  -8.244648195350e-01  0.0
 -8.253154816780e-01  -8.244648195350e-01  0.0
 -8.398725248715e-01  -8.390927512404e-01  0.0
 -8.544295680650e-01  -8.537206829458e-01  0.0
 -8.689866112585e-01  -8.683486146512e-01  0.0
 -8.835436544520e-01  -8.829765463567e-01  0.0
 -8.981006976455e-01  -8.976044780621e-01  0.0
 -9.126577408390e-01  -9.122324097675e-01  0.0
 -9.272147840325e-01  -9.268603414729e-01  0.0
 -9.417718272260e-01  -9.414882731783e-01  0.0
 -9.563288704195e-01  -9.561162048838e-01  0.0
 -9.708859136130e-01  -9.707441365892e-01  0.0
 -9.854429568065e-01  -9.853720682946e-01  0.0
 -1.000000000000e+00  -1.000000000000e+00  0.0
 -8.190391915382e-01  -8.390927512404e-01  0.0
 -8.335962347317e-01  -8.537206829458e-01  0.0
 -8.481532779252e-01  -8.683486146513e-01  0.0
 -8.627103211187e-01  -8.829765463567e-01  0.0
 -8.772673643122e-01  -8.976044780621e-01  0.0
 -8.918244075057e-01  -9.122324097675e-01  0.0
 -9.063814506992e-01  -9.268603414729e-01  0.0
 -9.209384938927e-01  -9.414882731783e-01  0.0
 -9.354955370862e-01  -9.561162048837e-01  0.0
 -9.500525802797e-01  -9.707441365892e-01  0.0
 -9.646096234732e-01  -9.853720682946e-01  0.0
 -9.791666666667e-01  -1.000000000000e+00  0.0
 -8.127629013983e-01  -8.537206829458e-01  0.0
 -8.273199445918e-01  -8.683486146512e-01  0.0
 -8.418769877853e-01  -8.829765463567e-01  0.0
 -8.564340309788e-01  -8.976044780621e-01  0.0
 -8.709910741723e-01  -9.122324097675e-01  0.0
 -8.855481173658e-01  -9.268603414729e-01  0.0
 -9.001051605593e-01  -9.414882731783e-01  0.0
 -9.146622037528e-01  -9.561162048838e-01  0.0
 -9.292192469463e-01  -9.707441365892e-01  0.0
 -9.437762901398e-01  -9.853720682946e-01  0.0
 -9.583333333333e-01  -1.000000000000e+00  0.0
 -8.064866112585e-01  -8.683486146513e-01  0.0
 -8.210436544520e-01  -8.829765463567e-01  0.0
 -8.356006976455e-01  -8.976044780621e-01  0.0
 -8.501577408390e-01  -9.122324097675e-01  0.0
 -8.647147840325e-01  -9.268603414729e-01  0.0
 -8.792718272260e-01  -9.414882731783e-01  0.0
 -8.938288704195e-01  -9.561162048837e-01  0.0
 -9.083859136130e-01  -9.707441365892e-01  0.0
 -9.229429568065e-01  -9.853720682946e-01  0.0
 -9.375000000000e-01  -1.000000000000e+00  0.0
 -8.002103211187e-01  -8.829765463567e-01  0.0
 -8.147673643122e-01  -8.976044780621e-01  0.0
 -8.293244075057e-01  -9.122324097675e-01  0.0
 -8.438814506992e-01  -9.268603414729e-01  0.0
 -8.584384938927e-01  -9.414882731783e-01  0.0
 -8.729955370862e-01  -9.561162048838e-01  0.0
 -8.875525802797e-01  -9.707441365892e-01  0.0
 -9.021096234732e-01  -9.853720682946e-01  0.0
 -9.166666666667e-01  -1.000000000000e+00  0.0
 -7.939340309788e-01  -8.976044780621e-01  0.0
 -8.084910741723e-01  -9.122324097675e-01  0.0
 -8.230481173658e-01  -9.268603414729e-01  0.0
 -8.376051605593e-01  -9.414882731783e-01  0.0
 -8.521622037528e-01  -9.561162048837e-01  0.0
 -8.667192469463e-01  -9.707441365892e-01  0.0
 -8.812762901398e-01  -9.853720682946e-01  0.0
 -8.958333333333e-01  -1.000000000000e+00  0.0
 -7.876577408390e-01  -9.122324097675e-01  0.0
 -8.022147840325e-01  -9.268603414729e-01  0.0
 -8.167718272260e-01  -9.414882731783e-01  0.0
 -8.313288704195e-01  -9.561162048837e-01  0.0
 -8.458859136130e-01  -9.707441365892e-01  0.0
 -8.604429568065e-01  -9.853720682946e-01  0.0
 -8.750000000000e-01  -1.000000000000e+00  0.0
 -7.813814506992e-01  -9.268603414729e-01  0.0
 -7.959384938927e-01  -9.414882731783e-01  0.0
 -8.104955370862e-01  -9.561162048837e-01  0.0
 -8.250525802797e-01  -9.707441365892e-01  0.0
 -8.396096234732e-01  -9.853720682946e-01  0.0
 -8.541666666667e-01  -1.000000000000e+00  0.0
 -7.751051605593e-01  -9.414882731783e-01  0.0
 -7.896622037528e-01  -9.561162048837e-01  0.0
 -8.042192469463e-01  -9.707441365892e-01  0.0
 -8.187762901398e-01  -9.853720682946e-01  0.0
 -8.333333333333e-01  -1.000000000000e+00  0.0
 -7.688288704195e-01  -9.561162048837e-01  0.0
 -7.833859136130e-01  -9.707441365892e-01  0.0
 -7.979429568065e-01  -9.853720682946e-01  0.0
 -8.125000000000e-01  -1.000000000000e+00  0.0
 -7.625525802797e-01  -9.707441365892e-01  0.0
 -7.771096234732e-01  -9.853720682946e-01  0.0
 -7.916666666667e-01  -1.000000000000e+00  0.0
 -7.562762901398e-01  -9.853720682946e-01  0.0
 -7.708333333333e-01  -1.000000000000e+00  0.0
 -7.500000000000e-01  -1.000000000000e+00  0.0
  7.500000000000e-01  -1.000000000000e+00  0.0
  7.708333333333e-01  -1.000000000000e+00  0.0
  7.916666666667e-01  -1.000000000000e+00  0.0
  8.125000000000e-01  -1.000000000000e+00  0.0
  8.333333333333e-01  -1.000000000000e+00  0.0
  8.541666666667e-01  -1.000000000000e+00  0.0
  8.750000000000e-01  -1.000000000000e+00  0.0
  8.958333333333e-01  -1.000000000000e+00  0.0
  9.166666666667e-01  -1.000000000000e+00  0.0
  9.375000000000e-01  -1.000000000000e+00  0.0
  9.583333333333e-01  -1.000000000000e+00  0.0
  9.791666666667e-01  -1.000000000000e+00  0.0
  1.000000000000e+00  -1.000000000000e+00  0.0
  7.563790508287e-01  -9.849866634216e-01  0.0
  7.772123841620e-01  -9.849866634216e-01  0.0
  7.980457174953e-01  -9.849866634216e-01  0.0
  8.188790508287e-01  -9.849866634216e-01  0.0
  8.397123841620e-01  -9.849866634216e-01  0.0
  8.605457174953e-01  -9.849866634216e-01  0.0
  8.813790508287e-01  -9.849866634216e-01  0.0
  9.022123841620e-01  -9.849866634216e-01  0.0
  9.230457174953e-01  -9.849866634216e-01  0.0
  9.438790508287e-01  -9.849866634216e-01  0.0
  9.647123841620e-01  -9.849866634216e-01  0.0
  9.855457174953e-01  -9.849866634216e-01  0.0
  7.627581016573e-01  -9.699733268432e-01  0.0
  7.835914349907e-01  -9.699733268432e-01  0.0
  8.044247683240e-01  -9.699733268432e-01  0.0
[...]
POINT_DATA 13286
SCALARS field1 double 1
LOOKUP_TABLE default
 -5.978153309568e-12 
  2.679919321075e-13 
 -1.019549494366e-12 
  4.932538386671e-13 
  8.089691189905e-13 
 -3.655805503113e-13 
 -5.952703204095e-13 
  5.813458705518e-13 
  1.040563083300e-12 
 -1.043563776656e-13 
 -1.373575244383e-12 
 -1.508106605001e-11 
 -1.228546615170e-10 
 -1.694548936117e-02 
 -1.797510502735e-02 
 -1.892774853763e-02 
 -1.979934051570e-02 
 -2.058614867608e-02 
 -2.128480378988e-02 
 -2.189231410816e-02 
 -2.240607817568e-02 
 -2.282389597506e-02 
 -2.314397834889e-02 
 -2.336495465480e-02 
 -2.348587861619e-02 
 -3.448383496071e-02 
 -3.649599952208e-02 
 -3.835188260994e-02 
 -4.004353703774e-02 
 -4.156371889098e-02 
 -4.290591852477e-02 
 -4.406438843100e-02 
 -4.503416785576e-02 
 -4.581110405498e-02 
 -4.639187008374e-02 
 -4.677397902229e-02 
 -5.255676790953e-02 
 -5.550135588332e-02 
 -5.820827852491e-02 
 -6.066594437059e-02 
 -6.286382933110e-02 
 -6.479252173153e-02 
 -6.644376260629e-02 
 -6.781048107739e-02 
 -6.888682465215e-02 
 -6.966818428367e-02 
 -7.110327673061e-02 
 -7.492734572483e-02 
 -7.843056431609e-02 
 -8.159793118279e-02 
 -8.441588318593e-02 
 -8.687235342462e-02 
 -8.895682290525e-02 
 -9.066036560058e-02 
 -9.197568668264e-02 
 -9.005985592958e-02 
 -9.470789963984e-02 
 -9.895038958497e-02 
 -1.027691587667e-01 
 -1.061478546363e-01 
 -1.090720091009e-01 
 -1.115291004768e-01 
 -1.135086071114e-01 
 -1.093607655099e-01 
 -1.147749768075e-01 
 -1.196977040432e-01 
 -1.241078673280e-01 
 -1.279865816688e-01 
 -1.313172378252e-01 
 -1.340855734168e-01 
 -1.289383003273e-01 
 -1.350588432986e-01 
 -1.406010435821e-01 
 -1.455411685990e-01 
 -1.498580639816e-01 
 -1.535332441412e-01 
 -1.487230681412e-01 
 -1.554883579067e-01 
 -1.615878226663e-01 
 -1.669953435431e-01 
 -1.716877647139e-01 
 -1.686442751919e-01 
 -1.759912643035e-01 
 -1.825846318164e-01 
 -1.883961438835e-01 
 -1.886300180987e-01 
 -1.964944882818e-01 
 -2.035175389171e-01 
 -2.086075808474e-01 
 -2.169244388243e-01 
 -2.285037356032e-01 
 -2.285037355764e-01 
 -2.169244388299e-01 
 -2.035175389098e-01 
 -1.883961438891e-01 
 -1.716877647229e-01 
 -1.535332441391e-01 
 -1.340855734099e-01 
 -1.135086071150e-01 
 -9.197568669473e-02 
 -6.966818428429e-02 
 -4.677397901164e-02 
 -2.348587863223e-02 
 -6.535310622409e-11 
 -2.422425577751e-01 
 -2.301294827504e-01 
 -2.162196421198e-01 
 -2.006303680379e-01 
 -1.834931009940e-01 
 -1.649522856758e-01 
 -1.451641575012e-01 
 -1.242954301388e-01 
 -1.025218950319e-01 
 -8.002694462713e-02 
 -5.700003170432e-02 
 -3.363507789344e-02 
 -2.557559768078e-01 
 -2.431172546578e-01 
 -2.287138413088e-01 
 -2.126672122218e-01 
 -1.951126469376e-01 
 -1.761980926768e-01 
 -1.560829214614e-01 
 -1.349365912897e-01 
 -1.129372225912e-01 
 -9.027010187804e-02 
 -6.712612519956e-02 
 -2.689738017799e-01 
 -2.558179268041e-01 
 -2.409306497924e-01 
 -2.244375058910e-01 
 -2.064775205697e-01 
 -1.872020417449e-01 
 -1.667734683399e-01 
 -1.453638860307e-01 
 -1.231536216147e-01 
 -1.003297281319e-01 
 -2.818265606576e-01 
 -2.681623853371e-01 
 -2.528012889860e-01 
 -2.358727800225e-01 
 -2.175195341472e-01 
 -1.978961957921e-01 
 -1.771680789924e-01 
 -1.555097786393e-01 
 -1.331037037659e-01 
 -2.942458083732e-01 
 -2.800825381532e-01 
 -2.642579960180e-01 
 -2.469055745119e-01 
 -2.281715013537e-01 
 -2.082136110401e-01 
 -1.872000189193e-01 
 -1.653077089094e-01 
 -3.061644308876e-01 
 -2.915116187055e-01 
 -2.752343272993e-01 
 -2.574697415179e-01 
 -2.383675404407e-01 
 -2.180886399796e-01 
 -1.968038410681e-01 
 -3.175169438837e-01 
 -3.023844844425e-01 
 -2.856654567202e-01 
 -2.675007434387e-01 
 -2.480433720022e-01 
 -2.274572289665e-01 
 -3.282397847965e-01 
 -3.126379085806e-01 
 -2.954884671845e-01 
 -2.769359442245e-01 
 -2.571366100892e-01 
 -3.382715969150e-01 
 -3.222108639499e-01 
 -3.046426342166e-01 
 -2.857148927685e-01 
 -3.475535043270e-01 
 -3.310447976835e-01 
 -3.130697004149e-01 
 -3.560293765048e-01 
 -3.390838955498e-01 
 -3.636460813677e-01 
  3.636460813570e-01 
  3.390838955423e-01 
  3.130697004156e-01 
  2.857148927725e-01 
  2.571366100913e-01 
  2.274572289659e-01 
  1.968038410677e-01 
  1.653077089119e-01 
  1.331037037699e-01 
  1.003297281328e-01 
  6.712612519417e-02 
  3.363507788702e-02 
  7.281520190713e-11 
  3.558897175965e-01 
  3.308992886715e-01 
  3.044918981911e-01 
  2.767806266563e-01 
  2.478841379823e-01 
  2.179261713729e-01 
  1.870350114438e-01 
  1.553429388837e-01 
  1.229856640110e-01 
  9.010174564273e-02 
  5.683199776303e-02 
  2.331888653693e-02 
  3.472320573485e-01 
  3.218809993962e-01 
  2.951515975846e-01 
  2.671583113190e-01 
  2.380210121473e-01 
  2.078644704608e-01 
  1.768178212023e-01 
  1.450140108884e-01 
  1.125892283150e-01 
  7.968232138036e-02 
  4.643420252501e-02 
  3.377300547710e-01 
  3.120888394408e-01 
  2.851112117835e-01 
  2.569126941472e-01 
  2.276140369110e-01 
  1.973407014256e-01 
  1.662223227629e-01 
  1.343921545934e-01 
  1.019864985780e-01 
  6.914412072190e-02 
  3.274439439490e-01 
  3.015856146623e-01 
  2.744358494711e-01 
  2.461109078421e-01 
  2.167320815197e-01 
  1.864251751524e-01 
  1.553199675672e-01 
  1.235496560301e-01 
  9.125028589028e-02 
  3.164369542061e-01 
  2.904368278013e-01 
  2.631930063092e-01 
  2.348221519600e-01 
  2.054457531032e-01 
  1.751896039927e-01 
  1.441832661038e-01 
  1.125595133322e-01 
  3.047750122736e-01 
  2.787103694340e-01 
  2.514522460012e-01 
  2.231173654513e-01 
  1.938270620857e-01 
  1.637067614822e-01 
  1.328854433999e-01 
  2.925264326892e-01 
  2.664761985340e-01 
  2.392848723835e-01 
  2.110688916796e-01 
  1.819490815698e-01 
  1.520501375583e-01 
  2.797615978379e-01 
  2.538060140939e-01 
  2.267635940290e-01 
  1.987501374464e-01 
  1.698856022516e-01 
  2.665526290828e-01 
  2.407729192924e-01 
  2.139621828896e-01 
  1.862352275799e-01 
  2.529730504785e-01 
  2.274510797345e-01 
  2.009551285384e-01 
  2.390974465914e-01 
  2.139153773287e-01 
  2.250011159960e-01 
  2.250011160235e-01 
  2.139153773230e-01 
  2.009551285462e-01 
  1.862352275739e-01 
  1.698856022422e-01 
  1.520501375610e-01 
  1.328854434076e-01 
  1.125595133285e-01 
  9.125028587749e-02 
  6.914412072158e-02 
  4.643420253679e-02 
  2.331888651952e-02 
  1.330116486215e-10 
  2.054686455889e-01 
  1.938211893608e-01 
  1.803313069212e-01 
  1.651183795994e-01 
  1.483165455948e-01 
  1.300735511364e-01 
  1.105494851291e-01 
  8.991540816547e-02 
  6.835188757811e-02 
  4.604745100840e-02 
  2.319697176137e-02 
  1.673796056759e-11 
  1.858572781116e-01 
  1.736551799116e-01 
  1.596440946985e-01 
  1.439478394226e-01 
  1.267046639568e-01 
  1.080660670516e-01 
  8.819549886216e-02 
  6.726696117311e-02 
  4.546351724194e-02 
  2.297572398187e-02 
  8.566856483629e-13 
  1.662354347809e-01 
  1.534861892635e-01 
  1.389627264983e-01 
  1.227932079611e-01 
  1.051198934841e-01 
  8.609792288181e-02 
  6.589398730955e-02 
  4.468490172519e-02 
  2.265609062227e-02 
 -4.809340760384e-15 
  1.466710324188e-01 
  1.333825538387e-01 
  1.183559325958e-01 
  1.017235803981e-01 
  8.363166237426e-02 
  6.423884526758e-02 
  4.371493859783e-02 
  2.223944040647e-02 
 -6.898357638273e-13 
  1.272312166213e-01 
  1.134118389558e-01 
  9.789167132610e-02 
  8.080727825282e-02 
  6.230862262627e-02 
  4.255778138887e-02 
  2.172755749346e-02 
 -4.045084959603e-13 
  1.079820984212e-01 
  9.364057508966e-02 
  7.763686496299e-02 
  6.011158490028e-02 
  4.121838522639e-02 
  2.112263384335e-02 
  4.099279826957e-13 
  8.898849553927e-02 
  7.413399869692e-02 
  5.765714013978e-02 
  3.970248561165e-02 
  2.042725983226e-02 
  1.785909149574e-13 
  7.031367926545e-02 
  5.495579864913e-02 
  3.801657385658e-02 
  1.964441315860e-02 
 -6.475978141800e-13 
  5.201912798685e-02 
  3.616786929069e-02 
  1.877744609059e-02 
 -1.890219445101e-13 
  3.416428835074e-02 
  1.783007111152e-02 
  8.321929800635e-13 
  1.680634502699e-02 
 -9.427107252363e-13 
  7.002445274013e-12 
  7.444955564004e-12 
 -8.961324852619e-13 
  1.372256682194e-12 
 -2.384005712889e-13 
 -7.365771435616e-13 
  5.015317680907e-13 
  6.216323262158e-13 
 -7.862895359239e-13 
 -9.466489377835e-13 
  9.433458411448e-13 
  1.427836820735e-12 
  1.164433536415e-11 
  1.250728576733e-10 
  1.689649695904e-02 
  1.792221869663e-02 
  1.887119474012e-02 
  1.973936143168e-02 
  2.052300114881e-02 
  2.121875822312e-02 
  2.182365331402e-02 
  2.233509616997e-02 
  2.275089671937e-02 
  2.306927444278e-02 
  2.328886598763e-02 
  2.340873099595e-02 
  3.439752903550e-02 
  3.640105962974e-02 
  3.824871529920e-02 
  3.993258410019e-02 
  4.144545544529e-02 
  4.278085098474e-02 
  4.393305234897e-02 
  4.489712563715e-02 
  4.566894254656e-02 
  4.624519804639e-02 
  4.662342450984e-02 
  5.244429779836e-02 
  5.537464474706e-02 
  5.806786896885e-02 
  6.051243766235e-02 
  6.269788280619e-02 
  6.461484598785e-02 
  6.625511847602e-02 
  6.761167637367e-02 
  6.867871069891e-02 
  6.945165224984e-02 
  7.097520751640e-02 
  7.477854533283e-02 
  7.826166994252e-02 
  8.140966606677e-02 
  8.420905350022e-02 
  8.664784483702e-02 
  8.871559679903e-02 
  9.040345495558e-02 
  9.170419163404e-02 
  8.992611896255e-02 
  9.454604722124e-02 
  9.876111479761e-02 
  1.025532721169e-01 
  1.059062805766e-01 
  1.088057820851e-01 
  1.112393605364e-01 
  1.131965949642e-01 
  1.092306144468e-01 
  1.146084261062e-01 
  1.194954668990e-01 
  1.238708097526e-01 
  1.277157187766e-01 
  1.310137294935e-01 
  1.337507193168e-01 
  1.288202729381e-01 
  1.348952317672e-01 
  1.403925485142e-01 
  1.452886828072e-01 
  1.495626686519e-01 
  1.531962041997e-01 
  1.486249540968e-01 
  1.553345800016e-01 
  1.613790393985e-01 
  1.667324489659e-01 
  1.713718845849e-01 
  1.685730900074e-01 
  1.758534510201e-01 
  1.823807805749e-01 
  1.881271276197e-01 
  1.885919833706e-01 
  1.963779930339e-01 
  2.033230820060e-01 
  2.086081108819e-01 
  2.168338297273e-01 
  2.285474304919e-01 
  2.285474304667e-01 
  2.168338297320e-01 
  2.033230820001e-01 
  1.881271276252e-01 
  1.713718845930e-01 
  1.531962041978e-01 
  1.337507193112e-01 
  1.131965949683e-01 
  9.170419164485e-02 
  6.945165224935e-02 
  4.662342450073e-02 
  2.340873101382e-02 
  6.133373736135e-11 
  2.422431820347e-01 
  2.300130653748e-01 
  2.160158539617e-01 
  2.003675233046e-01 
  1.831977438241e-01 
  1.646488053806e-01 
  1.448744370340e-01 
  1.240385319598e-01 
  1.023137880900e-01 
  7.988027569867e-02 
  5.692394380199e-02 
  3.363507788773e-02 
  2.557180974849e-01 
  2.429795672585e-01 
  2.285051575118e-01 
  2.124148025861e-01 
  1.948418399944e-01 
  1.759319045168e-01 
  1.558417202290e-01 
  1.347378005822e-01 
  1.127950673005e-01 
  9.019539951299e-02 
  6.712612518489e-02 
  2.689028047397e-01 
  2.556642975613e-01 
  2.407222685470e-01 
  2.242005319368e-01 
  2.062360045784e-01 
  1.869775703247e-01 
  1.665848451231e-01 
  1.452268531104e-01 
  1.230806246779e-01 
  1.003297281172e-01 
  2.817286438341e-01 
  2.679989248032e-01 
  2.525991627777e-01 
  2.356569704075e-01 
  2.173127537623e-01 
  1.977185477830e-01 
  1.770367552407e-01 
  1.554387997161e-01 
  1.331037037573e-01 
  2.941279685148e-01 
  2.799161252257e-01 
  2.640688169056e-01 
  2.467173706251e-01 
  2.280055892683e-01 
  2.080885588058e-01 
  1.871313619506e-01 
  1.653077089057e-01 
  3.060344438489e-01 
  2.913498801890e-01 
  2.750655058248e-01 
  2.573162758148e-01 
  2.382492952162e-01 
  2.180225989635e-01 
  1.968038410649e-01 
  3.173833385575e-01 
  3.022357683004e-01 
  2.855250945613e-01 
  2.673898115681e-01 
  2.479802297379e-01 
  2.274572289623e-01 
  3.281118108198e-01 
  3.125112510194e-01 
  2.953853236954e-01 
  2.768759711001e-01 
  2.571366100879e-01 
  3.381591863258e-01 
  3.221159505179e-01 
  3.045860870464e-01 
  2.857148927748e-01 
  3.474672273872e-01 
  3.309919186045e-01 
  3.130697004261e-01 
  3.559803919477e-01 
  3.390838955536e-01 
  3.636460813653e-01 
 -3.636460813630e-01 
 -3.390838955545e-01 
 -3.130697004269e-01 
 -2.857148927735e-01 
 -2.571366100852e-01 
 -2.274572289603e-01 
 -1.968038410644e-01 
 -1.653077089062e-01 
 -1.331037037571e-01 
 -1.003297281157e-01 
 -6.712612518301e-02 
 -3.363507788784e-02 
 -6.450679331770e-11 
 -3.559307562472e-01 
 -3.309405100719e-01 
 -3.045331258201e-01 
 -2.768216839674e-01 
 -2.479248491654e-01 
 -2.179663621002e-01 
 -1.870745096113e-01 
 -1.553815753510e-01 
 -1.230232733300e-01 
 -9.013816676972e-02 
 -5.686707474326e-02 
 -2.335246916156e-02 
 -3.473485741280e-01 
 -3.219952502148e-01 
 -2.952630932068e-01 
 -2.672665743031e-01 
 -2.381255788950e-01 
 -2.079648932000e-01 
 -1.769136699052e-01 
 -1.451048751159e-01 
 -1.126747189762e-01 
 -7.976207239534e-02 
 -4.650787238303e-02 
 -3.379537925756e-01 
 -3.123051105719e-01 
 -2.853190901432e-01 
 -2.571112895676e-01 
 -2.278024989729e-01 
 -1.975182231023e-01 
 -1.663881438783e-01 
 -1.345455650794e-01 
 -1.021268415117e-01 
 -6.927079512899e-02 
 -3.278037359922e-01 
 -3.019298862842e-01 
 -2.747631264551e-01 
 -2.464197887357e-01 
 -2.170212436433e-01 
 -1.866933802669e-01 
 -1.555660671788e-01 
 -1.237725963065e-01 
 -9.144911216462e-02 
 -3.169585342558e-01 
 -2.909319000861e-01 
 -2.636594508575e-01 
 -2.352579713825e-01 
 -2.058490811517e-01 
 -1.755587135545e-01 
 -1.445165765977e-01 
 -1.128555974704e-01 
 -3.054808494394e-01 
 -2.793757186281e-01 
 -2.520742580973e-01 
 -2.236933768976e-01 
 -1.943546063133e-01 
 -1.641835794672e-01 
 -1.333094933336e-01 
 -2.934355918222e-01 
 -2.673278593323e-01 
 -2.400753879045e-01 
 -2.117948768168e-01 
 -1.826074275455e-01 
 -1.526380252337e-01 
 -2.808896264408e-01 
 -2.548564890644e-01 
 -2.277320170717e-01 
 -1.996323616283e-01 
 -1.706778497543e-01 
 -2.679114714662e-01 
 -2.420311159417e-01 
 -2.151143460136e-01 
 -1.872764234400e-01 
 -2.545709897234e-01 
 -2.289222756291e-01 
 -2.022932811954e-01 
 -2.409390747054e-01 
 -2.156012135097e-01 
 -2.270873324692e-01 
 -2.270873324917e-01 
 -2.156012135055e-01 
 -2.022932812013e-01 
 -1.872764234344e-01 
 -1.706778497465e-01 
 -1.526380252359e-01 
 -1.333094933392e-01 
 -1.128555974660e-01 
 -9.144911215370e-02 
 -6.927079512966e-02 
 -4.650787239226e-02 
 -2.335246914300e-02 
 -1.260630839692e-10 
 -2.073048087315e-01 
 -1.952878687187e-01 
 -1.814798116304e-01 
 -1.659977131727e-01 
 -1.489726784398e-01 
 -1.305487431376e-01 
 -1.108816664586e-01 
 -9.013762577203e-02 
 -6.849182401107e-02 
 -4.612702136195e-02 
 -2.323200358438e-02 
 -1.310577470619e-11 
 -1.874462036307e-01 
 -1.749060753978e-01 
 -1.606067488994e-01 
 -1.446694077779e-01 
 -1.272289631883e-01 
 -1.084329231288e-01 
 -8.844015623182e-02 
 -6.741956039406e-02 
 -4.554864734563e-02 
 -2.301205498158e-02 
 -1.099143502675e-12 
 -1.675833645206e-01 
 -1.545280418582e-01 
 -1.397466404973e-01 
 -1.233643692974e-01 
 -1.055198533849e-01 
 -8.636397236613e-02 
 -6.605859587368e-02 
 -4.477522704088e-02 
 -2.269356522234e-02 
 -1.217463808641e-12 
 -1.477876220323e-01 
 -1.342254566339e-01 
 -1.189715102311e-01 
 -1.021549314335e-01 
 -8.391796471523e-02 
 -6.441475830491e-02 
 -4.381007234591e-02 
 -2.227789813841e-02 
  2.650592692273e-13 
 -1.281294987691e-01 
 -1.140691968807e-01 
 -9.835256637529e-02 
 -8.111260745631e-02 
 -6.249508685214e-02 
 -4.265731619635e-02 
 -2.176683367897e-02 
  7.360998984331e-13 
 -1.086784217261e-01 
 -9.412904051828e-02 
 -7.795991355238e-02 
 -6.030780184068e-02 
 -4.132189486852e-02 
 -2.116256029653e-02 
 -1.432060106642e-13 
 -8.950243966716e-02 
 -7.447338332218e-02 
 -5.786226955636e-02 
 -3.980952683935e-02 
 -2.046766557973e-02 
 -3.965063949664e-13 
 -7.066794663984e-02 
 -5.516896214611e-02 
 -3.812668829998e-02 
 -1.968512517412e-02 
  3.014764205209e-13 
 -5.223941277954e-02 
 -3.628058542744e-02 
 -1.881829003948e-02 
  2.226607501813e-13 
 -3.427912352528e-02 
 -1.787087209869e-02 
 -7.069205247304e-13 
 -1.684692834067e-02 
  4.618507694191e-13 
 -4.727146613578e-12 
 -2.242478564568e-11 
 -1.694548938443e-02 
 -3.448383497961e-02 
 -5.255676792524e-02 
 -7.110327674300e-02 
 -9.005985593787e-02 
 -1.093607655147e-01 
 -1.289383003298e-01 
 -1.487230681418e-01 
 -1.686442751892e-01 
 -1.886300180926e-01 
 -2.086075808404e-01 
 -2.285037355872e-01 
 -1.894700215215e-02 
 -3.562615206860e-02 
 -5.287345586355e-02 
 -7.063020445179e-02 
 -8.883501656149e-02 
 -1.074240900616e-01 
 -1.263314639413e-01 
 -1.454892898288e-01 
 -1.648281119029e-01 
 -1.842771540163e-01 
 -2.037646128160e-01 
 -2.232179556121e-01 
 -3.630004941977e-02 
 -5.267386927613e-02 
 -6.959209217659e-02 
 -8.699560866192e-02 
 -1.048227074834e-01 
 -1.230093295926e-01 
 -1.414893324949e-01 
 -1.601947638433e-01 
 -1.790561431174e-01 
 -1.980027501939e-01 
 -2.169629195862e-01 
 -5.194018644244e-02 
 -6.797375705174e-02 
 -8.452901398600e-02 
 -1.015464845555e-01 
 -1.189641645987e-01 
 -1.367177750489e-01 
 -1.547410285730e-01 
 -1.729659051505e-01 
 -1.913229354238e-01 
 -2.097414906212e-01 
 -6.576313377349e-02 
 -8.142586866908e-02 
 -9.758867963552e-02 
 -1.141917650389e-01 
 -1.311728619504e-01 
 -1.484675052042e-01 
 -1.660092962345e-01 
 -1.837301805477e-01 
 -2.015607326522e-01 
 -7.768014870887e-02 
 -9.294601891104e-02 
 -1.086915229364e-01 
 -1.248565614888e-01 
 -1.413786439570e-01 
 -1.581931498807e-01 
 -1.752335998970e-01 
 -1.924319350164e-01 
 -8.761875666791e-02 
 -1.024664770559e-01 
 -1.177746072882e-01 
 -1.334827785605e-01 
 -1.495283004879e-01 
 -1.658464248937e-01 
 -1.823706187793e-01 
 -9.552334697800e-02 
 -1.099365227334e-01 
 -1.247921412269e-01 
 -1.400295890749e-01 
 -1.555860007582e-01 
 -1.713965246499e-01 
 -1.013556280918e-01 
 -1.153228600132e-01 
 -1.297158510980e-01 
 -1.444737650134e-01 
 -1.595335824086e-01 
 -1.050949384647e-01 
 -1.186098862880e-01 
 -1.325352077507e-01 
 -1.468098618524e-01 
 -1.067384105179e-01 
 -1.197998137113e-01 
 -1.332575053461e-01 
 -1.063009863132e-01 
 -1.189126421480e-01 
 -1.038152847626e-01 
 -7.286331516370e-11 
 -1.894700213836e-02 
 -3.630004942740e-02 
 -5.194018644548e-02 
 -6.576313376646e-02 
 -7.768014870416e-02 
 -8.761875667016e-02 
 -9.552334697898e-02 
 -1.013556280846e-01 
 -1.050949384550e-01 
 -1.067384105146e-01 
 -1.063009863062e-01 
 -1.038152847490e-01 
  3.383280625925e-12 
 -1.757166790250e-02 
 -3.346671898586e-02 
 -4.757669710308e-02 
 -5.980845085102e-02 
 -7.008490219715e-02 
 -7.834568119387e-02 
 -8.454762141785e-02 
 -8.866511199837e-02 
 -9.069030332105e-02 
 -9.063316471655e-02 
 -8.852139366632e-02 
  4.896992689450e-12 
 -1.612108905952e-02 
 -3.049007891449e-02 
 -4.300947705393e-02 
 -5.359765897475e-02 
 -6.218954137680e-02 
 -6.873711747624e-02 
 -7.320984995297e-02 
 -7.559491827592e-02 
 -7.589731837240e-02 
 -7.413981383093e-02 
  8.745340425450e-13 
 -1.460147723243e-02 
 -2.738287565415e-02 
 -3.825808382944e-02 
 -4.715735369470e-02 
 -5.402787539048e-02 
 -5.883421086823e-02 
 -6.155858267153e-02 
 -6.220101551519e-02 
 -6.077932950855e-02 
  9.383294830410e-13 
 -1.301933964223e-02 
 -2.415841472139e-02 
 -3.334286361353e-02 
 -4.051511337861e-02 
 -4.563485374022e-02 
 -4.867936713193e-02 
 -4.964371208969e-02 
 -4.854075849360e-02 
  1.204788108915e-12 
 -1.138145124477e-02 
 -2.083050374546e-02 
 -2.828486412825e-02 
 -3.369938111854e-02 
 -3.704641663487e-02 
 -3.831607087274e-02 
 -3.751625953755e-02 
  1.468334878971e-13 
 -9.694825724737e-03 
 -1.741339334768e-02 
 -2.310574450502e-02 
 -2.673934293165e-02 
 -2.829934108904e-02 
 -2.778869933640e-02 
 -6.725527173104e-13 
 -7.966685468082e-03 
 -1.392171612070e-02 
 -1.782768253549e-02 
 -1.966480277844e-02 
 -1.943108343573e-02 
 -2.928171449969e-13 
 -6.204430638584e-03 
 -1.037042396977e-02 
 -1.247327970046e-02 
 -1.250605493334e-02 
 -1.533482487007e-13 
 -4.415607488521e-03 
 -6.774724082385e-03 
 -7.065464379603e-03 
 -2.049989739845e-12 
 -2.607876037942e-03 