# vtk DataFile Version 2
NuDG++ 2D simulation
ASCII
DATASET UNSTRUCTURED_GRID

POINTS 13286 double
 -1.000000000000e+00  -7.500000000000e-01  0.0
 -1.000000000000e+00  -7.708333333333e-01  0.0
 -1.000000000000e+00  -7.916666666667e-01  0.0
 -1.000000000000e+00  -8.125000000000e-01  0.0
 -1.000000000000e+00  -8.333333333333e-01  0.0
 -1.000000000000e+00  -8.541666666667e-01  0.0
 -1.000000000000e+00  -8.750000000000e-01  0.0
 -1.000000000000e+00  -8.958333333333e-01  0.0
 -1.000000000000e+00  -9.166666666667e-01  0.0
 -1.000000000000e+00  -9.375000000000e-01  0.0
 -1.000000000000e+00  -9.583333333333e-01  0.0
 -1.000000000000e+00  -9.791666666667e-01  0.0
 -1.000000000000e+00  -1.000000000000e+00  0.0
 -9.854429568065e-01  -7.562054016279e-01  0.0
 -9.854429568065e-01  -7.770387349612e-01  0.0
 -9.854429568065e-01  -7.978720682946e-01  0.0
 -9.854429568065e-01  -8.187054016279e-01  0.0
 -9.854429568065e-01  -8.395387349612e-01  0.0
 -9.854429568065e-01  -8.603720682946e-01  0.0
 -9.854429568065e-01  -8.812054016279e-01  0.0
 -9.854429568065e-01  -9.020387349613e-01  0.0
 -9.854429568065e-01  -9.228720682946e-01  0.0
 -9.854429568065e-01  -9.437054016279e-01  0.0
 -9.854429568065e-01  -9.645387349612e-01  0.0
 -9.854429568065e-01  -9.853720682946e-01  0.0
 -9.708859136130e-01  -7.624108032558e-01  0.0
 -9.708859136130e-01  -7.832441365892e-01  0.0
 -9.708859136130e-01  -8.040774699225e-01  0.0
 -9.708859136130e-01  -8.249108032558e-01  0.0
 -9.708859136130e-01  -8.457441365892e-01  0.0
 -9.708859136130e-01  -8.665774699225e-01  0.0
 -9.708859136130e-01  -8.874108032558e-01  0.0
 -9.708859136130e-01  -9.082441365892e-01  0.0
 -9.708859136130e-01  -9.290774699225e-01  0.0
 -9.708859136130e-01  -9.499108032558e-01  0.0
 -9.708859136130e-01  -9.707441365892e-01  0.0
 -9.563288704195e-01  -7.686162048838e-01  0.0
 -9.563288704195e-01  -7.894495382171e-01  0.0
 -9.563288704195e-01  -8.102828715504e-01  0.0
 -9.563288704195e-01  -8.311162048838e-01  0.0
 -9.563288704195e-01  -8.519495382171e-01  0.0
 -9.563288704195e-01  -8.727828715504e-01  0.0
 -9.563288704195e-01  -8.936162048838e-01  0.0
 -9.563288704195e-01  -9.144495382171e-01  0.0
 -9.563288704195e-01  -9.352828715504e-01  0.0
 -9.563288704195e-01  -9.561162048838e-01  0.0
 -9.417718272260e-01  -7.748216065117e-01  0.0
 -9.417718272260e-01  -7.956549398450e-01  0.0
 -9.417718272260e-01  -8.164882731783e-01  0.0
 -9.417718272260e-01  -8.373216065117e-01  0.0
 -9.417718272260e-01  -8.581549398450e-01  0.0
 -9.417718272260e-01  -8.789882731783e-01  0.0
 -9.417718272260e-01  -8.998216065117e-01  0.0
 -9.417718272260e-01  -9.206549398450e-01  0.0
 -9.417718272260e-01  -9.414882731783e-01  0.0
 -9.272147840325e-01  -7.810270081396e-01  0.0
 -9.272147840325e-01  -8.018603414729e-01  0.0
 -9.272147840325e-01  -8.226936748063e-01  0.0
 -9.272147840325e-01  -8.435270081396e-01  0.0
 -9.272147840325e-01  -8.643603414729e-01  0.0
 -9.272147840325e-01  -8.851936748062e-01  0.0
 -9.272147840325e-01  -9.060270081396e-01  0.0
 -9.272147840325e-01  -9.268603414729e-01  0.0
 -9.126577408390e-01  -7.872324097675e-01  0.0
 -9.126577408390e-01  -8.080657431008e-01  0.0
 -9.126577408390e-01  -8.288990764342e-01  0.0
 -9.126577408390e-01  -8.497324097675e-01  0.0
 -9.126577408390e-01  -8.705657431008e-01  0.0
 -9.126577408390e-01  -8.913990764342e-01  0.0
 -9.126577408390e-01  -9.122324097675e-01  0.0
 -8.981006976455e-01  -7.934378113954e-01  0.0
 -8.981006976455e-01  -8.142711447287e-01  0.0
 -8.981006976455e-01  -8.351044780621e-01  0.0
 -8.981006976455e-01  -8.559378113954e-01  0.0
 -8.981006976455e-01  -8.767711447288e-01  0.0
 -8.981006976455e-01  -8.976044780621e-01  0.0
 -8.835436544520e-01  -7.996432130233e-01  0.0
 -8.835436544520e-01  -8.204765463567e-01  0.0
 -8.835436544520e-01  -8.413098796900e-01  0.0
 -8.835436544520e-01  -8.621432130233e-01  0.0
 -8.835436544520e-01  -8.829765463567e-01  0.0
 -8.689866112585e-01  -8.058486146512e-01  0.0
 -8.689866112585e-01  -8.266819479846e-01  0.0
 -8.689866112585e-01  -8.475152813179e-01  0.0
 -8.689866112585e-01  -8.683486146513e-01  0.0
 -8.544295680650e-01  -8.120540162792e-01  0.0
 -8.544295680650e-01  -8.328873496125e-01  0.0
 -8.544295680650e-01  -8.537206829458e-01  0.0
 -8.398725248715e-01  -8.182594179071e-01  0.0
 -8.398725248715e-01  -8.390927512404e-01  0.0
 -8.253154816780e-01  -8.244648195350e-01  0.0
 -8.253154816780e-01  -8.244648195350e-01  0.0
 -8.398725248715e-01  -8.390927512404e-01  0.0
 -8.544295680650e-01  -8.537206829458e-01  0.0
 -8.689866112585e-01  -8.683486146512e-01  0.0
 -8.835436544520e-01  -8.829765463567e-01  0.0
 -8.981006976455e-01  -8.976044780621e-01  0.0
 -9.126577408390e-01  -9.122324097675e-01  0.0
 -9.272147840325e-01  -9.268603414729e-01  0.0
 -9.417718272260e-01  -9.414882731783e-01  0.0
 -9.563288704195e-01  -9.561162048838e-01  0.0
 -9.708859136130e-01  -9.707441365892e-01  0.0
 -9.854429568065e-01  -9.853720682946e-01  0.0
 -1.000000000000e+00  -1.000000000000e+00  0.0
 -8.190391915382e-01  -8.390927512404e-01  0.0
 -8.335962347317e-01  -8.537206829458e-01  0.0
 -8.481532779252e-01  -8.683486146513e-01  0.0
 -8.627103211187e-01  -8.829765463567e-01  0.0
 -8.772673643122e-01  -8.976044780621e-01  0.0
 -8.918244075057e-01  -9.122324097675e-01  0.0
 -9.063814506992e-01  -9.268603414729e-01  0.0
 -9.209384938927e-01  -9.414882731783e-01  0.0
 -9.354955370862e-01  -9.561162048837e-01  0.0
 -9.500525802797e-01  -9.707441365892e-01  0.0
 -9.646096234732e-01  -9.853720682946e-01  0.0
 -9.791666666667e-01  -1.000000000000e+00  0.0
 -8.127629013983e-01  -8.537206829458e-01  0.0
 -8.273199445918e-01  -8.683486146512e-01  0.0
 -8.418769877853e-01  -8.829765463567e-01  0.0
 -8.564340309788e-01  -8.976044780621e-01  0.0
 -8.709910741723e-01  -9.122324097675e-01  0.0
 -8.855481173658e-01  -9.268603414729e-01  0.0
 -9.001051605593e-01  -9.414882731783e-01  0.0
 -9.146622037528e-01  -9.561162048838e-01  0.0
 -9.292192469463e-01  -9.707441365892e-01  0.0
 -9.437762901398e-01  -9.853720682946e-01  0.0
 -9.583333333333e-01  -1.000000000000e+00  0.0
 -8.064866112585e-01  -8.683486146513e-01  0.0
 -8.210436544520e-01  -8.829765463567e-01  0.0
 -8.356006976455e-01  -8.976044780621e-01  0.0
 -8.501577408390e-01  -9.122324097675e-01  0.0
 -8.647147840325e-01  -9.268603414729e-01  0.0
 -8.792718272260e-01  -9.414882731783e-01  0.0
 -8.938288704195e-01  -9.561162048837e-01  0.0
 -9.083859136130e-01  -9.707441365892e-01  0.0
 -9.229429568065e-01  -9.853720682946e-01  0.0
 -9.375000000000e-01  -1.000000000000e+00  0.0
 -8.002103211187e-01  -8.829765463567e-01  0.0
 -8.147673643122e-01  -8.976044780621e-01  0.0
 -8.293244075057e-01  -9.122324097675e-01  0.0
 -8.438814506992e-01  -9.268603414729e-01  0.0
 -8.584384938927e-01  -9.414882731783e-01  0.0
 -8.729955370862e-01  -9.561162048838e-01  0.0
 -8.875525802797e-01  -9.707441365892e-01  0.0
 -9.021096234732e-01  -9.853720682946e-01  0.0
 -9.166666666667e-01  -1.000000000000e+00  0.0
 -7.939340309788e-01  -8.976044780621e-01  0.0
 -8.084910741723e-01  -9.122324097675e-01  0.0
 -8.230481173658e-01  -9.268603414729e-01  0.0
 -8.376051605593e-01  -9.414882731783e-01  0.0
 -8.521622037528e-01  -9.561162048837e-01  0.0
 -8.667192469463e-01  -9.707441365892e-01  0.0
 -8.812762901398e-01  -9.853720682946e-01  0.0
 -8.958333333333e-01  -1.000000000000e+00  0.0
 -7.876577408390e-01  -9.122324097675e-01  0.0
 -8.022147840325e-01  -9.268603414729e-01  0.0
 -8.167718272260e-01  -9.414882731783e-01  0.0
 -8.313288704195e-01  -9.561162048837e-01  0.0
 -8.458859136130e-01  -9.707441365892e-01  0.0
 -8.604429568065e-01  -9.853720682946e-01  0.0
 -8.750000000000e-01  -1.000000000000e+00  0.0
 -7.813814506992e-01  -9.268603414729e-01  0.0
 -7.959384938927e-01  -9.414882731783e-01  0.0
 -8.104955370862e-01  -9.561162048837e-01  0.0
 -8.250525802797e-01  -9.707441365892e-01  0.0
 -8.396096234732e-01  -9.853720682946e-01  0.0
 -8.541666666667e-01  -1.000000000000e+00  0.0
 -7.751051605593e-01  -9.414882731783e-01  0.0
 -7.896622037528e-01  -9.561162048837e-01  0.0
 -8.042192469463e-01  -9.707441365892e-01  0.0
 -8.187762901398e-01  -9.853720682946e-01  0.0
 -8.333333333333e-01  -1.000000000000e+00  0.0
 -7.688288704195e-01  -9.561162048837e-01  0.0
 -7.833859136130e-01  -9.707441365892e-01  0.0
 -7.979429568065e-01  -9.853720682946e-01  0.0
 -8.125000000000e-01  -1.000000000000e+00  0.0
 -7.625525802797e-01  -9.707441365892e-01  0.0
 -7.771096234732e-01  -9.853720682946e-01  0.0
 -7.916666666667e-01  -1.000000000000e+00  0.0
 -7.562762901398e-01  -9.853720682946e-01  0.0
 -7.708333333333e-01  -1.000000000000e+00  0.0
 -7.500000000000e-01  -1.000000000000e+00  0.0
  7.500000000000e-01  -1.000000000000e+00  0.0
  7.708333333333e-01  -1.000000000000e+00  0.0
  7.916666666667e-01  -1.000000000000e+00  0.0
  8.125000000000e-01  -1.000000000000e+00  0.0
  8.333333333333e-01  -1.000000000000e+00  0.0
  8.541666666667e-01  -1.000000000000e+00  0.0
  8.750000000000e-01  -1.000000000000e+00  0.0
  8.958333333333e-01  -1.000000000000e+00  0.0
  9.166666666667e-01  -1.000000000000e+00  0.0
  9.375000000000e-01  -1.000000000000e+00  0.0
  9.583333333333e-01  -1.000000000000e+00  0.0
  9.791666666667e-01  -1.000000000000e+00  0.0
  1.000000000000e+00  -1.000000000000e+00  0.0
  7.563790508287e-01  -9.849866634216e-01  0.0
  7.772123841620e-01  -9.849866634216e-01  0.0
  7.980457174953e-01  -9.849866634216e-01  0.0
  8.188790508287e-01  -9.849866634216e-01  0.0
  8.397123841620e-01  -9.849866634216e-01  0.0
  8.605457174953e-01  -9.849866634216e-01  0.0
  8.813790508287e-01  -9.849866634216e-01  0.0
  9.022123841620e-01  -9.849866634216e-01  0.0
  9.230457174953e-01  -9.849866634216e-01  0.0
  9.438790508287e-01  -9.849866634216e-01  0.0
  9.647123841620e-01  -9.849866634216e-01  0.0
  9.855457174953e-01  -9.849866634216e-01  0.0
  7.627581016573e-01  -9.699733268432e-01  0.0
  7.835914349907e-01  -9.699733268432e-01  0.0
  8.044247683240e-01  -9.699733268432e-01  0.0
[...]
POINT_DATA 13286
SCALARS field1 double 1
LOOKUP_TABLE default
  6.553205863398e-12 
 -1.383355713370e-12 
 -9.049079130236e-13 
  5.683351236828e-13 
  5.571324991844e-13 
 -2.130073523307e-13 
 -3.522751131879e-13 
  4.371772040568e-13 
  1.205835576685e-12 
  1.250913701193e-12 
  2.536885914406e-12 
  1.154960851073e-11 
  3.832205588285e-11 
  1.440630688843e-02 
  1.528164066994e-02 
  1.609153612070e-02 
  1.683252514740e-02 
  1.750143471120e-02 
  1.809540043809e-02 
  1.861187888274e-02 
  1.904865841083e-02 
  1.940386866400e-02 
  1.967598857067e-02 
  1.986385286546e-02 
  1.996665707897e-02 
  2.931663398335e-02 
  3.102728744881e-02 
  3.260507731536e-02 
  3.404324723542e-02 
  3.533563873047e-02 
  3.647671758742e-02 
  3.746159754603e-02 
  3.828606120560e-02 
  3.894657807841e-02 
  3.944031971650e-02 
  3.976517183787e-02 
  4.468144364135e-02 
  4.718480232631e-02 
  4.948610845179e-02 
  5.157550745614e-02 
  5.344405220224e-02 
  5.508374130876e-02 
  5.648755339301e-02 
  5.764947711713e-02 
  5.856453692823e-02 
  5.922881438260e-02 
  6.044886659927e-02 
  6.369992122425e-02 
  6.667820300664e-02 
  6.937095847588e-02 
  7.176665683706e-02 
  7.385503936050e-02 
  7.562716328696e-02 
  7.707544010311e-02 
  7.819366804153e-02 
  7.656491328850e-02 
  8.051647484234e-02 
  8.412325248193e-02 
  8.736980143134e-02 
  9.024221947034e-02 
  9.272820648090e-02 
  9.481711709608e-02 
  9.650000626970e-02 
  9.297369446279e-02 
  9.757661787274e-02 
  1.017617032147e-01 
  1.055110293193e-01 
  1.088085409944e-01 
  1.116401178012e-01 
  1.139936345034e-01 
  1.096176501944e-01 
  1.148210656071e-01 
  1.195327995802e-01 
  1.237326757589e-01 
  1.274027096188e-01 
  1.305271855203e-01 
  1.264377862641e-01 
  1.321893369374e-01 
  1.373748325673e-01 
  1.419720680807e-01 
  1.459613573901e-01 
  1.433739169454e-01 
  1.496200027289e-01 
  1.552253926794e-01 
  1.601660836734e-01 
  1.603649131617e-01 
  1.670509385183e-01 
  1.730216260921e-01 
  1.773489549694e-01 
  1.844195804686e-01 
  1.942637872972e-01 
  1.942637872878e-01 
  1.844195804706e-01 
  1.730216260895e-01 
  1.601660836761e-01 
  1.459613573931e-01 
  1.305271855179e-01 
  1.139936344997e-01 
  9.650000627115e-02 
  7.819366804572e-02 
  5.922881438022e-02 
  3.976517183198e-02 
  1.996665708952e-02 
  4.841925782031e-12 
  2.059439273557e-01 
  1.956459258046e-01 
  1.838203934366e-01 
  1.705670808933e-01 
  1.559977330686e-01 
  1.402351504730e-01 
  1.234121575746e-01 
  1.056704869640e-01 
  8.715958873831e-02 
  6.803537505215e-02 
  4.845891032824e-02 
  2.859505817398e-02 
  2.174324396028e-01 
  2.066875560626e-01 
  1.944424099532e-01 
  1.808002743694e-01 
  1.658761580065e-01 
  1.497958390713e-01 
  1.326948086217e-01 
  1.147171323479e-01 
  9.601424035796e-02 
  7.674365507780e-02 
  5.706766792782e-02 
  2.286696508252e-01 
  2.174851067718e-01 
  2.048286011326e-01 
  1.908068583664e-01 
  1.755380717944e-01 
  1.591509107364e-01 
  1.417834395781e-01 
  1.235819579467e-01 
  1.046997717233e-01 
  8.529590516901e-02 
  2.395964989629e-01 
  2.279798203889e-01 
  2.149204944666e-01 
  2.005286235514e-01 
  1.849255042257e-01 
  1.682426083538e-01 
  1.506204786178e-01 
  1.322075478790e-01 
  1.131588922578e-01 
  2.501547950449e-01 
  2.381138080206e-01 
  2.246604809591e-01 
  2.099082183218e-01 
  1.939813364561e-01 
  1.770140192751e-01 
  1.591491910185e-01 
  1.405373156044e-01 
  2.602874816856e-01 
  2.478303077011e-01 
  2.339920732033e-01 
  2.188894066983e-01 
  2.026495587262e-01 
  1.854093328862e-01 
  1.673139365910e-01 
  2.699388870139e-01 
  2.570739381069e-01 
  2.428601588967e-01 
  2.274173216551e-01 
  2.108755235222e-01 
  1.933740936105e-01 
  2.790549729400e-01 
  2.657909466116e-01 
  2.512112486966e-01 
  2.354387127877e-01 
  2.186061930670e-01 
  2.875835766893e-01 
  2.739294506047e-01 
  2.589937173356e-01 
  2.429021872368e-01 
  2.954746445554e-01 
  2.814396710265e-01 
  2.661580369478e-01 
  3.026804568473e-01 
  2.882741570908e-01 
  3.091558430321e-01 
 -3.091558430308e-01 
 -2.882741571023e-01 
 -2.661580369667e-01 
 -2.429021872492e-01 
 -2.186061930670e-01 
 -1.933740936040e-01 
 -1.673139365900e-01 
 -1.405373156180e-01 
 -1.131588922851e-01 
 -8.529590519948e-02 
 -5.706766794946e-02 
 -2.859505818319e-02 
 -5.028362876737e-12 
 -3.025617250189e-01 
 -2.813159657014e-01 
 -2.588655682334e-01 
 -2.353066686525e-01 
 -2.107401497852e-01 
 -1.852712092451e-01 
 -1.590089089490e-01 
 -1.320657080950e-01 
 -1.045569816016e-01 
 -7.660052605994e-02 
 -4.831605530884e-02 
 -1.982468779283e-02 
 -2.952013645252e-01 
 -2.736490143271e-01 
 -2.509248570393e-01 
 -2.271262009863e-01 
 -2.023549556691e-01 
 -1.767171953679e-01 
 -1.503227049086e-01 
 -1.232845095473e-01 
 -9.571839098529e-02 
 -6.774239157807e-02 
 -3.947630885974e-02 
 -2.871231814586e-01 
 -2.653241522647e-01 
 -2.423889643200e-01 
 -2.184158296188e-01 
 -1.935074048019e-01 
 -1.677703515702e-01 
 -1.413148799374e-01 
 -1.142542762918e-01 
 -8.670441828977e-02 
 -5.878327865663e-02 
 -2.783783841772e-01 
 -2.563947742816e-01 
 -2.333132426053e-01 
 -2.092326278092e-01 
 -1.842560467759e-01 
 -1.584904530611e-01 
 -1.320461788965e-01 
 -1.050364627221e-01 
 -7.757696428536e-02 
 -2.690207274635e-01 
 -2.469165679199e-01 
 -2.237550737301e-01 
 -1.996354259676e-01 
 -1.746609086570e-01 
 -1.489384665186e-01 
 -1.225782470052e-01 
 -9.569312862580e-02 
 -2.591062593180e-01 
 -2.369472507530e-01 
 -2.137735976853e-01 
 -1.896845332582e-01 
 -1.647832105311e-01 
 -1.391762607936e-01 
 -1.129733369487e-01 
 -2.486930577458e-01 
 -2.265462988109e-01 
 -2.034294338426e-01 
 -1.794414528143e-01 
 -1.546850759248e-01 
 -1.292663137850e-01 
 -2.378409587395e-01 
 -2.157746674072e-01 
 -1.927843958168e-01 
 -1.689685918549e-01 
 -1.444292384262e-01 
 -2.266112766924e-01 
 -2.046945056330e-01 
 -1.819012012613e-01 
 -1.583289680308e-01 
 -2.150665185070e-01 
 -1.933688658112e-01 
 -1.708431779189e-01 
 -2.032700926907e-01 
 -1.818614092349e-01 
 -1.912860147654e-01 
 -1.912860147761e-01 
 -1.818614092325e-01 
 -1.708431779219e-01 
 -1.583289680285e-01 
 -1.444292384226e-01 
 -1.292663137862e-01 
 -1.129733369517e-01 
 -9.569312862429e-02 
 -7.757696428040e-02 
 -5.878327865701e-02 
 -3.947630886556e-02 
 -1.982468778773e-02 
 -3.034317304656e-11 
 -1.746803707964e-01 
 -1.647782178050e-01 
 -1.533097153397e-01 
 -1.403763562064e-01 
 -1.260921787501e-01 
 -1.105827902952e-01 
 -9.398429138324e-02 
 -7.644211017859e-02 
 -5.810975703091e-02 
 -3.914750980598e-02 
 -1.972104121756e-02 
 -1.411080934095e-11 
 -1.580076520369e-01 
 -1.476339669217e-01 
 -1.357223608721e-01 
 -1.223780976469e-01 
 -1.077187111634e-01 
 -9.187299897813e-02 
 -7.497991921376e-02 
 -5.718740049966e-02 
 -3.865107511260e-02 
 -1.953294612691e-02 
 -4.202017549908e-12 
 -1.413260271723e-01 
 -1.304871815592e-01 
 -1.181399747373e-01 
 -1.043933639765e-01 
 -8.936829229373e-02 
 -7.319665272053e-02 
 -5.602015872837e-02 
 -3.798913057614e-02 
 -1.926120796405e-02 
 -7.635397798439e-13 
 -1.246932360833e-01 
 -1.133959583224e-01 
 -1.006209883754e-01 
 -8.648089686517e-02 
 -7.109994692747e-02 
 -5.461303003318e-02 
 -3.716451074155e-02 
 -1.890699034689e-02 
 -7.629896684847e-13 
 -1.081663629877e-01 
 -9.641773825661e-02 
 -8.322317695828e-02 
 -6.869878024997e-02 
 -5.297203996269e-02 
 -3.618074676408e-02 
 -1.847181008960e-02 
 -1.051413826566e-12 
 -9.180161256528e-02 
 -7.960908263257e-02 
 -6.600343484853e-02 
 -5.110421548799e-02 
 -3.504205127709e-02 
 -1.795753070447e-02 
 -3.708540048791e-13 
 -7.565408998195e-02 
 -6.302545260851e-02 
 -4.901755491780e-02 
 -3.375330034923e-02 
 -1.736635441743e-02 
  5.022838168378e-13 
 -5.977758569836e-02 
 -4.672099365697e-02 
 -3.232001260970e-02 
 -1.670081273662e-02 
  2.935279712841e-13 
 -4.422436592667e-02 
 -3.074832562092e-02 
 -1.596375561436e-02 
 -7.074912336393e-13 
 -2.904496957943e-02 
 -1.515833924394e-02 
 -2.129973172061e-13 
 -1.428801253341e-02 
  1.741945877904e-12 
 -1.039034438630e-11 
 -1.963775544221e-11 
  1.366321168266e-12 
 -2.791523290393e-13 
 -6.347949315371e-13 
  3.496961362022e-13 
  3.113725993863e-13 
 -4.283042088345e-13 
 -5.826599461998e-13 
 -2.094318219427e-13 
 -7.229563450086e-13 
 -3.055995761671e-12 
 -7.755084429184e-12 
 -2.413076877264e-11 
 -1.436465571675e-02 
 -1.523667905431e-02 
 -1.604345658724e-02 
 -1.678153357614e-02 
 -1.744774946321e-02 
 -1.803925141003e-02 
 -1.855350651361e-02 
 -1.898831265252e-02 
 -1.934180791862e-02 
 -1.961247859292e-02 
 -1.979916562757e-02 
 -1.990106959931e-02 
 -2.924326050452e-02 
 -3.094657375728e-02 
 -3.251736902977e-02 
 -3.394891993772e-02 
 -3.523509635808e-02 
 -3.637039068765e-02 
 -3.734994142272e-02 
 -3.816955397334e-02 
 -3.882571862910e-02 
 -3.931562559646e-02 
 -3.963717703135e-02 
 -4.458582652150e-02 
 -4.707707812108e-02 
 -4.936673844637e-02 
 -5.144500281716e-02 
 -5.330297178462e-02 
 -5.493268924566e-02 
 -5.632717650218e-02 
 -5.748046214048e-02 
 -5.838760760899e-02 
 -5.904472837631e-02 
 -6.033998780020e-02 
 -6.357341769948e-02 
 -6.653461646114e-02 
 -6.921090377528e-02 
 -7.159081936972e-02 
 -7.366417208825e-02 
 -7.542208351896e-02 
 -7.685702600899e-02 
 -7.796285490584e-02 
 -7.645121600716e-02 
 -8.037887505311e-02 
 -8.396233940741e-02 
 -8.718626412874e-02 
 -9.003684387832e-02 
 -9.250187204400e-02 
 -9.457079300014e-02 
 -9.623474730160e-02 
 -9.286304575477e-02 
 -9.743502380756e-02 
 -1.015897701190e-01 
 -1.053094934366e-01 
 -1.085782653332e-01 
 -1.113820884320e-01 
 -1.137089563342e-01 
 -1.095173084997e-01 
 -1.146819702939e-01 
 -1.193555462757e-01 
 -1.235180234892e-01 
 -1.271515775610e-01 
 -1.302406490549e-01 
 -1.263543740192e-01 
 -1.320586017382e-01 
 -1.371973342456e-01 
 -1.417485667180e-01 
 -1.456928100602e-01 
 -1.433133984321e-01 
 -1.495028399439e-01 
 -1.550520873433e-01 
 -1.599373779210e-01 
 -1.603325777078e-01 
 -1.669518993845e-01 
 -1.728563073986e-01 
 -1.773494055822e-01 
 -1.843425486027e-01 
 -1.943009347759e-01 
 -1.943009347683e-01 
 -1.843425486045e-01 
 -1.728563073962e-01 
 -1.599373779228e-01 
 -1.456928100630e-01 
 -1.302406490540e-01 
 -1.137089563318e-01 
 -9.623474730276e-02 
 -7.796285490957e-02 
 -5.904472837589e-02 
 -3.963717702727e-02 
 -1.990106960469e-02 
 -3.108173933247e-12 
 -2.059444580828e-01 
 -1.955469528768e-01 
 -1.836471417340e-01 
 -1.703436219118e-01 
 -1.557466334564e-01 
 -1.399771449322e-01 
 -1.231658500153e-01 
 -1.054520834485e-01 
 -8.698266537757e-02 
 -6.791068360028e-02 
 -4.839422378034e-02 
 -2.859505819302e-02 
 -2.174002362720e-01 
 -2.065705002966e-01 
 -1.942649962024e-01 
 -1.805856868546e-01 
 -1.656459299118e-01 
 -1.495695376487e-01 
 -1.324897499666e-01 
 -1.145481292455e-01 
 -9.589338620422e-02 
 -7.668014645566e-02 
 -5.706766795936e-02 
 -2.286092922562e-01 
 -2.173544979540e-01 
 -2.046514446040e-01 
 -1.906053935866e-01 
 -1.753327455649e-01 
 -1.589600750344e-01 
 -1.416230804316e-01 
 -1.234654586061e-01 
 -1.046377129751e-01 
 -8.529590519955e-02 
 -2.395132543748e-01 
 -2.278408534485e-01 
 -2.147486556988e-01 
 -2.003451517525e-01 
 -1.847497086652e-01 
 -1.680915798462e-01 
 -1.505088329587e-01 
 -1.321472047498e-01 
 -1.131588922830e-01 
 -2.500546127796e-01 
 -2.379723310987e-01 
 -2.244996492433e-01 
 -2.097482156883e-01 
 -1.938402853165e-01 
 -1.769077053821e-01 
 -1.590908219077e-01 
 -1.405373156251e-01 
 -2.601769724404e-01 
 -2.476928047699e-01 
 -2.338485486530e-01 
 -2.187589369322e-01 
 -2.025490318530e-01 
 -1.853531877387e-01 
 -1.673139366072e-01 
 -2.698253016738e-01 
 -2.569475062293e-01 
 -2.427408291969e-01 
 -2.273230122751e-01 
 -2.108218427594e-01 
 -1.933740936200e-01 
 -2.789461751262e-01 
 -2.656832679610e-01 
 -2.511235606587e-01 
 -2.353877262804e-01 
 -2.186061930685e-01 
 -2.874880101728e-01 
 -2.738487594003e-01 
 -2.589456434199e-01 
 -2.429021872334e-01 
 -2.954012957097e-01 
 -2.813947155658e-01 
 -2.661580369469e-01 
 -3.026388123476e-01 
 -2.882741570967e-01 
 -3.091558430345e-01 
  3.091558430490e-01 
  2.882741571085e-01 
  2.661580369571e-01 
  2.429021872421e-01 
  2.186061930752e-01 
  1.933740936235e-01 
  1.673139366056e-01 
  1.405373156176e-01 
  1.131588922706e-01 
  8.529590518588e-02 
  5.706766794932e-02 
  2.859505818933e-02 
  2.285890140239e-12 
  3.025966142751e-01 
  2.813510103073e-01 
  2.589006181293e-01 
  2.353415737633e-01 
  2.107747606480e-01 
  1.853053776446e-01 
  1.590424885594e-01 
  1.320985551173e-01 
  1.045889553843e-01 
  7.663148969667e-02 
  4.834587621186e-02 
  1.985323826032e-02 
  2.953004219423e-01 
  2.737461453260e-01 
  2.510196456891e-01 
  2.272182413915e-01 
  2.024438537007e-01 
  1.768025703490e-01 
  1.504041912477e-01 
  1.233617583077e-01 
  9.579107137866e-02 
  6.781019237517e-02 
  3.953893972123e-02 
  2.873133934636e-01 
  2.655080164437e-01 
  2.425656933270e-01 
  2.185846666699e-01 
  1.936676269143e-01 
  1.679212726535e-01 
  1.414558537292e-01 
  1.143846991225e-01 
  8.682373166465e-02 
  5.889097164811e-02 
  2.786842635048e-01 
  2.566874588397e-01 
  2.335914790573e-01 
  2.094952246993e-01 
  1.845018796307e-01 
  1.587184691977e-01 
  1.322554019216e-01 
  1.052259967083e-01 
  7.774599760862e-02 
  2.694641518186e-01 
  2.473374565452e-01 
  2.241516243018e-01 
  2.000059403919e-01 
  1.750038003436e-01 
  1.492522671640e-01 
  1.228616128700e-01 
  9.594484628618e-02 
  2.597063309280e-01 
  2.375129012778e-01 
  2.143024049142e-01 
  1.901742327551e-01 
  1.652317053347e-01 
  1.395816303867e-01 
  1.133338454743e-01 
  2.494659846931e-01 
  2.272703432196e-01 
  2.041014952405e-01 
  1.800586533262e-01 
  1.552447726046e-01 
  1.297661099267e-01 
  2.387999588285e-01 
  2.166677348374e-01 
  1.936077063351e-01 
  1.697186199089e-01 
  1.451027722780e-01 
  2.277665044667e-01 
  2.057641688644e-01 
  1.828807194866e-01 
  1.592141467917e-01 
  2.164250158936e-01 
  1.946196116024e-01 
  1.719808162356e-01 
  2.048357636110e-01 
  1.832946327241e-01 
  1.930596239133e-01 
  1.930596239203e-01 
  1.832946327221e-01 
  1.719808162376e-01 
  1.592141467894e-01 
  1.451027722752e-01 
  1.297661099281e-01 
  1.133338454767e-01 
  9.594484628427e-02 
  7.774599760425e-02 
  5.889097164854e-02 
  3.953893972405e-02 
  1.985323825110e-02 
  3.694094171231e-11 
  1.762413956310e-01 
  1.660251238331e-01 
  1.542861233436e-01 
  1.411239267959e-01 
  1.266499939270e-01 
  1.109867775480e-01 
  9.426669727471e-02 
  7.663102976974e-02 
  5.822872480389e-02 
  3.921515700598e-02 
  1.975082372730e-02 
  6.510715152306e-12 
  1.593584863489e-01 
  1.486974230242e-01 
  1.365407669750e-01 
  1.229915432099e-01 
  1.081644472205e-01 
  9.218488381057e-02 
  7.518791609740e-02 
  5.731713360955e-02 
  3.872344896025e-02 
  1.956383313684e-02 
  4.151874796642e-12 
  1.424719775065e-01 
  1.313729186201e-01 
  1.188064238062e-01 
  1.048789401281e-01 
  8.970832054043e-02 
  7.342283623943e-02 
  5.616010165272e-02 
  3.806592116168e-02 
  1.929306720886e-02 
  1.507414096262e-12 
  1.256425112562e-01 
  1.141125570472e-01 
  1.011443252985e-01 
  8.684761247177e-02 
  7.134334853751e-02 
  5.476258352808e-02 
  3.724538924804e-02 
  1.893968540712e-02 
 -4.038419024627e-13 
  1.089300427966e-01 
  9.697659493002e-02 
  8.361500958072e-02 
  6.895835766439e-02 
  5.313056362050e-02 
  3.626536686418e-02 
  1.850520096656e-02 
  7.779777702265e-14 
  9.239359588874e-02 
  8.002435437132e-02 
  6.627807650554e-02 
  5.127103048060e-02 
  3.513005061394e-02 
  1.799147441501e-02 
  8.962875715892e-13 
  7.609102258573e-02 
  6.331398243887e-02 
  4.919194690774e-02 
  3.384430209099e-02 
  1.740070560735e-02 
  2.775020410132e-13 
  6.007876817695e-02 
  4.690221586124e-02 
  3.241362706584e-02 
  1.673542430604e-02 
 -6.449848696723e-13 
  4.441164232694e-02 
  3.084415191263e-02 
  1.599847934801e-02 
 -2.872347263001e-14 
  2.914259736564e-02 
  1.519302644436e-02 
  5.059562462812e-13 
  1.432251466542e-02 
 -1.139719318754e-12 
  1.801727555723e-11 
 -2.603318147817e-11 
  1.440630686711e-02 
  2.931663396347e-02 
  4.468144362518e-02 
  6.044886658786e-02 
  7.656491328098e-02 
  9.297369445837e-02 
  1.096176501933e-01 
  1.264377862668e-01 
  1.433739169520e-01 
  1.603649131727e-01 
  1.773489549865e-01 
  1.942637873196e-01 
  1.610790471437e-02 
  3.028778157203e-02 
  4.495067776747e-02 
  6.004668143560e-02 
  7.552360893102e-02 
  9.132721849582e-02 
  1.074014329877e-01 
  1.236885707165e-01 
  1.401295834125e-01 
  1.566643003213e-01 
  1.732316773999e-01 
  1.897700505558e-01 
  3.086069932768e-02 
  4.478099803966e-02 
  5.916412418757e-02 
  7.395982552106e-02 
  8.911563785811e-02 
  1.045771010203e-01 
  1.202879835781e-01 
  1.361905154494e-01 
  1.522256273653e-01 
  1.683331961971e-01 
  1.844522951070e-01 
  4.415725330629e-02 
  5.778828712875e-02 
  7.186283564046e-02 
  8.633033778280e-02 
  1.011380803504e-01 
  1.162314161168e-01 
  1.315539905205e-01 
  1.470479759460e-01 
  1.626543126123e-01 
  1.783129550517e-01 
  5.590891283533e-02 
  6.922467851283e-02 
  8.296558679376e-02 
  9.708079696443e-02 
  1.115173758282e-01 
  1.262205179478e-01 
  1.411337741966e-01 
  1.561992876502e-01 
  1.713580358203e-01 
  6.604023277610e-02 
  7.901860162032e-02 
  9.240473396845e-02 
  1.061475360485e-01 
  1.201938810995e-01 
  1.344888316590e-01 
  1.489758699095e-01 
  1.635971351071e-01 
  7.448959845778e-02 
  8.711247479333e-02 
  1.001267712545e-01 
  1.134811649446e-01 
  1.271223592622e-01 
  1.409953081653e-01 
  1.550434482445e-01 
  8.120973214939e-02 
  9.346317781946e-02 
  1.060927687763e-01 
  1.190469741888e-01 
  1.322723485634e-01 
  1.457137579209e-01 
  8.616808005236e-02 
  9.804240395965e-02 
  1.102786895141e-01 
  1.228252163419e-01 
  1.356284081853e-01 
  8.934707662306e-02 
  1.008368885639e-01 
  1.126755820545e-01 
  1.248112627438e-01 
  9.074428400300e-02 
  1.018485123352e-01 
  1.132896476146e-01 
  9.037240530344e-02 
  1.010942782708e-01 
  8.825917145948e-02 
 -3.030202433164e-11 
  1.610790471936e-02 
  3.086069933090e-02 
  4.415725330299e-02 
  5.590891283549e-02 
  6.604023278358e-02 
  7.448959846483e-02 
  8.120973214915e-02 
  8.616808005098e-02 
  8.934707663264e-02 
  9.074428401696e-02 
  9.037240529690e-02 
  8.825917151925e-02 
  1.047059752085e-11 
  1.493865624331e-02 
  2.845192690093e-02 
  4.044760733688e-02 
  5.084650431964e-02 
  5.958308952499e-02 
  6.660603910642e-02 
  7.187865486935e-02 
  7.537916356500e-02 
  7.710089180861e-02 
  7.705231511641e-02 
  7.525698054516e-02 
  7.132353976411e-12 
  1.370543815875e-02 
  2.592131894450e-02 
  3.656475849095e-02 
  4.556636326548e-02 
  5.287080234405e-02 
  5.843726247346e-02 
  6.223978215061e-02 
  6.426746193009e-02 
  6.452454916131e-02 
  6.303039634562e-02 
  2.240749843201e-12 
  1.241353127845e-02 
  2.327971190554e-02 
  3.252533372878e-02 
  4.009110005311e-02 
  4.593211427160e-02 
  5.001824849710e-02 
  5.233438911517e-02 
  5.288055716633e-02 
  5.167190245448e-02 
  1.649777872446e-12 
  1.106846774643e-02 
  2.053841756622e-02 
  2.834663050464e-02 
  3.444416060424e-02 
  3.879673782965e-02 
  4.138504869410e-02 
  4.220489220367e-02 
  4.126720972318e-02 
  1.648133631866e-12 
  9.676007337352e-03 
  1.770917457990e-02 
  2.404654266750e-02 
  2.864972597105e-02 
  3.149522779436e-02 
  3.257463176977e-02 
  3.189466745953e-02 
  3.845178267181e-13 
  8.242112783919e-03 
  1.480409819586e-02 
  1.964348384029e-02 
  2.273260880305e-02 
  2.405885036000e-02 
  2.362472526421e-02 
 -7.276425360249e-13 
  6.772924241501e-03 
  1.183562838794e-02 
  1.515630858948e-02 
  1.671814711071e-02 
  1.651944922544e-02 
 -3.028170857663e-13 
  5.274732998316e-03 
  8.816476598844e-03 
  1.060423170013e-02 
  1.063209574372e-02 
 -1.226395561794e-14 
  3.753954539399e-03 
  5.759571311361e-03 
  6.006745870716e-03 
 -2.756209596177e-12 
  2.217101072152e-03 