# vtk DataFile Version 2
NuDG++ 2D simulation
ASCII
DATASET UNSTRUCTURED_GRID

POINTS 7854 double
 -1.656250060000e-01  -2.000000030000e-01  0.0
 -1.725000054000e-01  -1.908888817000e-01  0.0
 -1.793750048000e-01  -1.817777604000e-01  0.0
 -1.862500042000e-01  -1.726666391000e-01  0.0
 -1.931250036000e-01  -1.635555178000e-01  0.0
 -2.000000030000e-01  -1.544443965000e-01  0.0
 -1.725000054000e-01  -2.000000030000e-01  0.0
 -1.793750048000e-01  -1.908888817000e-01  0.0
 -1.862500042000e-01  -1.817777604000e-01  0.0
 -1.931250036000e-01  -1.726666391000e-01  0.0
 -2.000000030000e-01  -1.635555178000e-01  0.0
 -1.793750048000e-01  -2.000000030000e-01  0.0
 -1.862500042000e-01  -1.908888817000e-01  0.0
 -1.931250036000e-01  -1.817777604000e-01  0.0
 -2.000000030000e-01  -1.726666391000e-01  0.0
 -1.862500042000e-01  -2.000000030000e-01  0.0
 -1.931250036000e-01  -1.908888817000e-01  0.0
 -2.000000030000e-01  -1.817777604000e-01  0.0
 -1.931250036000e-01  -2.000000030000e-01  0.0
 -2.000000030000e-01  -1.908888817000e-01  0.0
 -2.000000030000e-01  -2.000000030000e-01  0.0
 -6.428571790000e-02  -1.700000018000e-01  0.0
 -7.080357372400e-02  -1.760000020400e-01  0.0
 -7.732142954800e-02  -1.820000022800e-01  0.0
 -8.383928537200e-02  -1.880000025200e-01  0.0
 -9.035714119600e-02  -1.940000027600e-01  0.0
 -9.687499702000e-02  -2.000000030000e-01  0.0
 -6.392857432000e-02  -1.760000020400e-01  0.0
 -7.044643014400e-02  -1.820000022800e-01  0.0
 -7.696428596800e-02  -1.880000025200e-01  0.0
 -8.348214179200e-02  -1.940000027600e-01  0.0
 -8.999999761600e-02  -2.000000030000e-01  0.0
 -6.357143074000e-02  -1.820000022800e-01  0.0
 -7.008928656400e-02  -1.880000025200e-01  0.0
 -7.660714238800e-02  -1.940000027600e-01  0.0
 -8.312499821200e-02  -2.000000030000e-01  0.0
 -6.321428716000e-02  -1.880000025200e-01  0.0
 -6.973214298400e-02  -1.940000027600e-01  0.0
 -7.624999880800e-02  -2.000000030000e-01  0.0
 -6.285714358000e-02  -1.940000027600e-01  0.0
 -6.937499940400e-02  -2.000000030000e-01  0.0
 -6.250000000000e-02  -2.000000030000e-01  0.0
 -2.000000030000e-01  -1.544443965000e-01  0.0
 -1.900000036000e-01  -1.478412374800e-01  0.0
 -1.800000042000e-01  -1.412380784600e-01  0.0
 -1.700000048000e-01  -1.346349194400e-01  0.0
 -1.600000054000e-01  -1.280317604200e-01  0.0
 -1.500000060000e-01  -1.214286014000e-01  0.0
 -2.000000030000e-01  -1.453332975600e-01  0.0
 -1.900000036000e-01  -1.387301385400e-01  0.0
 -1.800000042000e-01  -1.321269795200e-01  0.0
 -1.700000048000e-01  -1.255238205000e-01  0.0
 -1.600000054000e-01  -1.189206614800e-01  0.0
 -2.000000030000e-01  -1.362221986200e-01  0.0
 -1.900000036000e-01  -1.296190396000e-01  0.0
 -1.800000042000e-01  -1.230158805800e-01  0.0
 -1.700000048000e-01  -1.164127215600e-01  0.0
 -2.000000030000e-01  -1.271110996800e-01  0.0
 -1.900000036000e-01  -1.205079406600e-01  0.0
 -1.800000042000e-01  -1.139047816400e-01  0.0
 -2.000000030000e-01  -1.180000007400e-01  0.0
 -1.900000036000e-01  -1.113968417200e-01  0.0
 -2.000000030000e-01  -1.088889018000e-01  0.0
 -1.500000060000e-01  -1.214286014000e-01  0.0
 -1.600000054000e-01  -1.280317604200e-01  0.0
 -1.700000048000e-01  -1.346349194400e-01  0.0
 -1.800000042000e-01  -1.412380784600e-01  0.0
 -1.900000036000e-01  -1.478412374800e-01  0.0
 -2.000000030000e-01  -1.544443965000e-01  0.0
 -1.500000060000e-01  -1.311428814800e-01  0.0
 -1.600000054000e-01  -1.377460405000e-01  0.0
 -1.700000048000e-01  -1.443491995200e-01  0.0
 -1.800000042000e-01  -1.509523585400e-01  0.0
 -1.900000036000e-01  -1.575555175600e-01  0.0
 -1.500000060000e-01  -1.408571615600e-01  0.0
 -1.600000054000e-01  -1.474603205800e-01  0.0
 -1.700000048000e-01  -1.540634796000e-01  0.0
 -1.800000042000e-01  -1.606666386200e-01  0.0
 -1.500000060000e-01  -1.505714416400e-01  0.0
 -1.600000054000e-01  -1.571746006600e-01  0.0
 -1.700000048000e-01  -1.637777596800e-01  0.0
 -1.500000060000e-01  -1.602857217200e-01  0.0
 -1.600000054000e-01  -1.668888807400e-01  0.0
 -1.500000060000e-01  -1.700000018000e-01  0.0
 -1.500000060000e-01  -7.285714149000e-02  0.0
 -1.600000054000e-01  -8.006349355200e-02  0.0
 -1.700000048000e-01  -8.726984561400e-02  0.0
 -1.800000042000e-01  -9.447619767600e-02  0.0
 -1.900000036000e-01  -1.016825497380e-01  0.0
 -2.000000030000e-01  -1.088889018000e-01  0.0
 -1.500000060000e-01  -8.257143347200e-02  0.0
 -1.600000054000e-01  -8.977778553400e-02  0.0
 -1.700000048000e-01  -9.698413759600e-02  0.0
 -1.800000042000e-01  -1.041904896580e-01  0.0
 -1.900000036000e-01  -1.113968417200e-01  0.0
 -1.500000060000e-01  -9.228572545400e-02  0.0
 -1.600000054000e-01  -9.949207751600e-02  0.0
 -1.700000048000e-01  -1.066984295780e-01  0.0
 -1.800000042000e-01  -1.139047816400e-01  0.0
 -1.500000060000e-01  -1.020000174360e-01  0.0
 -1.600000054000e-01  -1.092063694980e-01  0.0
 -1.700000048000e-01  -1.164127215600e-01  0.0
 -1.500000060000e-01  -1.117143094180e-01  0.0
 -1.600000054000e-01  -1.189206614800e-01  0.0
 -1.500000060000e-01  -1.214286014000e-01  0.0
  1.832975030000e+00  -4.625000060000e-02  0.0
  1.841380024000e+00  -7.700000108000e-02  0.0
  1.849785018000e+00  -1.077500015600e-01  0.0
  1.858190012000e+00  -1.385000020400e-01  0.0
  1.866595006000e+00  -1.692500025200e-01  0.0
  1.875000000000e+00  -2.000000030000e-01  0.0
  1.866380024000e+00  -5.649999976400e-02  0.0
  1.874785018000e+00  -8.725000024400e-02  0.0
  1.883190012000e+00  -1.180000007240e-01  0.0
  1.891595006000e+00  -1.487500012040e-01  0.0
  1.900000000000e+00  -1.795000016840e-01  0.0
  1.899785018000e+00  -6.674999892800e-02  0.0
  1.908190012000e+00  -9.749999940800e-02  0.0
  1.916595006000e+00  -1.282499998880e-01  0.0
  1.925000000000e+00  -1.590000003680e-01  0.0
  1.933190012000e+00  -7.699999809200e-02  0.0
  1.941595006000e+00  -1.077499985720e-01  0.0
  1.950000000000e+00  -1.384999990520e-01  0.0
  1.966595006000e+00  -8.724999725600e-02  0.0
  1.975000000000e+00  -1.179999977360e-01  0.0
  2.000000000000e+00  -9.749999642000e-02  0.0
 -1.500000060000e-01  -1.700000018000e-01  0.0
 -1.444000050800e-01  -1.630000025200e-01  0.0
 -1.388000041600e-01  -1.560000032400e-01  0.0
 -1.332000032400e-01  -1.490000039600e-01  0.0
 -1.276000023200e-01  -1.420000046800e-01  0.0
 -1.220000014000e-01  -1.350000054000e-01  0.0
 -1.500000060000e-01  -1.602857217200e-01  0.0
 -1.444000050800e-01  -1.532857224400e-01  0.0
 -1.388000041600e-01  -1.462857231600e-01  0.0
 -1.332000032400e-01  -1.392857238800e-01  0.0
 -1.276000023200e-01  -1.322857246000e-01  0.0
 -1.500000060000e-01  -1.505714416400e-01  0.0
 -1.444000050800e-01  -1.435714423600e-01  0.0
 -1.388000041600e-01  -1.365714430800e-01  0.0
 -1.332000032400e-01  -1.295714438000e-01  0.0
 -1.500000060000e-01  -1.408571615600e-01  0.0
 -1.444000050800e-01  -1.338571622800e-01  0.0
 -1.388000041600e-01  -1.268571630000e-01  0.0
 -1.500000060000e-01  -1.311428814800e-01  0.0
 -1.444000050800e-01  -1.241428822000e-01  0.0
 -1.500000060000e-01  -1.214286014000e-01  0.0
  2.849999964000e-01  -2.333333530000e-02  0.0
  2.844999968800e-01  -4.666666836000e-02  0.0
  2.839999973600e-01  -7.000000142000e-02  0.0
  2.834999978400e-01  -9.333333448000e-02  0.0
  2.829999983200e-01  -1.166666675400e-01  0.0
  2.824999988000e-01  -1.400000006000e-01  0.0
  2.979999959200e-01  -3.266666830000e-02  0.0
  2.974999964000e-01  -5.600000136000e-02  0.0
  2.969999968800e-01  -7.933333442000e-02  0.0
  2.964999973600e-01  -1.026666674800e-01  0.0
  2.959999978400e-01  -1.260000005400e-01  0.0
  3.109999954400e-01  -4.200000130000e-02  0.0
  3.104999959200e-01  -6.533333436000e-02  0.0
  3.099999964000e-01  -8.866666742000e-02  0.0
  3.094999968800e-01  -1.120000004800e-01  0.0
  3.239999949600e-01  -5.133333430000e-02  0.0
  3.234999954400e-01  -7.466666736000e-02  0.0
  3.229999959200e-01  -9.800000042000e-02  0.0
  3.369999944800e-01  -6.066666730000e-02  0.0
  3.364999949600e-01  -8.400000036000e-02  0.0
  3.499999940000e-01  -7.000000030000e-02  0.0
 -1.071429029000e-01  -1.700000018000e-01  0.0
 -9.857146590000e-02  -1.700000018000e-01  0.0
 -9.000002890000e-02  -1.700000018000e-01  0.0
 -8.142859190000e-02  -1.700000018000e-01  0.0
 -7.285715490000e-02  -1.700000018000e-01  0.0
 -6.428571790000e-02  -1.700000018000e-01  0.0
 -1.037143230360e-01  -1.630000025200e-01  0.0
 -9.514288603600e-02  -1.630000025200e-01  0.0
 -8.657144903600e-02  -1.630000025200e-01  0.0
 -7.800001203600e-02  -1.630000025200e-01  0.0
 -6.942857503600e-02  -1.630000025200e-01  0.0
 -1.002857431720e-01  -1.560000032400e-01  0.0
 -9.171430617200e-02  -1.560000032400e-01  0.0
 -8.314286917200e-02  -1.560000032400e-01  0.0
 -7.457143217200e-02  -1.560000032400e-01  0.0
 -9.685716330800e-02  -1.490000039600e-01  0.0
 -8.828572630800e-02  -1.490000039600e-01  0.0
 -7.971428930800e-02  -1.490000039600e-01  0.0
 -9.342858344400e-02  -1.420000046800e-01  0.0
 -8.485714644400e-02  -1.420000046800e-01  0.0
 -9.000000358000e-02  -1.350000054000e-01  0.0
 -1.312499940000e-01  -2.000000030000e-01  0.0
 -1.264285757800e-01  -1.940000027600e-01  0.0
 -1.216071575600e-01  -1.880000025200e-01  0.0
 -1.167857393400e-01  -1.820000022800e-01  0.0
 -1.119643211200e-01  -1.760000020400e-01  0.0
 -1.071429029000e-01  -1.700000018000e-01  0.0
 -1.349999964000e-01  -1.940000027600e-01  0.0
 -1.301785781800e-01  -1.880000025200e-01  0.0
 -1.253571599600e-01  -1.820000022800e-01  0.0
 -1.205357417400e-01  -1.760000020400e-01  0.0
 -1.157143235200e-01  -1.700000018000e-01  0.0
 -1.387499988000e-01  -1.880000025200e-01  0.0
 -1.339285805800e-01  -1.820000022800e-01  0.0
 -1.291071623600e-01  -1.760000020400e-01  0.0
 -1.242857441400e-01  -1.700000018000e-01  0.0
 -1.425000012000e-01  -1.820000022800e-01  0.0
 -1.376785829800e-01  -1.760000020400e-01  0.0
 -1.328571647600e-01  -1.700000018000e-01  0.0
 -1.462500036000e-01  -1.760000020400e-01  0.0
 -1.414285853800e-01  -1.700000018000e-01  0.0
 -1.500000060000e-01  -1.700000018000e-01  0.0
[...]
POINT_DATA 7854
SCALARS field1 double 1
LOOKUP_TABLE default
  7.913901250567e-06 
  7.590244235810e-03 
  7.907521154829e-03 
  7.781177432187e-03 
  8.505045257626e-03 
  9.893447775837e-03 
 -3.778697861119e-06 
  6.366625684827e-03 
  6.507430370050e-03 
  6.734104056083e-03 
  8.101210594693e-03 
 -2.392339607160e-07 
  4.826134332064e-03 
  5.086150026452e-03 
  6.230914437016e-03 
  1.658710915664e-05 
  3.124498545665e-03 
  4.256946730220e-03 
 -1.367812919691e-06 
  2.166939966908e-03 
  5.057853078371e-06 
  1.864270132098e-02 
  1.826452437179e-02 
  1.770066391295e-02 
  1.629121539460e-02 
  1.186677735957e-02 
 -1.427039933837e-06 
  1.857572883624e-02 
  1.802144772445e-02 
  1.661787284836e-02 
  1.212394714947e-02 
 -5.386291828316e-07 
  1.832254063090e-02 
  1.692026197315e-02 
  1.236703754945e-02 
 -5.768548803081e-07 
  1.720315068984e-02 
  1.259423428208e-02 
 -5.995891118970e-07 
  1.280402496552e-02 
 -4.547236822510e-07 
 -7.104361085200e-07 
  9.882762244746e-03 
  1.148419717732e-02 
  1.305138567987e-02 
  1.431061674201e-02 
  1.532557962467e-02 
  1.615961363293e-02 
  1.155876772419e-02 
  1.293412225686e-02 
  1.424698609810e-02 
  1.528589693231e-02 
  1.614328257087e-02 
  1.314335126591e-02 
  1.432819656411e-02 
  1.536708483806e-02 
  1.622551649866e-02 
  1.462568199883e-02 
  1.562092298177e-02 
  1.644361534495e-02 
  1.601107587250e-02 
  1.684380534436e-02 
  1.729224774467e-02 
  1.616162660240e-02 
  1.532584661945e-02 
  1.431251854495e-02 
  1.304995506127e-02 
  1.148623663338e-02 
  9.882954695154e-03 
  1.544416651490e-02 
  1.449186897989e-02 
  1.328771290884e-02 
  1.173824353879e-02 
  9.853647947595e-03 
  1.477791940573e-02 
  1.366519894652e-02 
  1.224055916933e-02 
  1.044638854724e-02 
  1.413433311271e-02 
  1.285130697941e-02 
  1.123096644806e-02 
  1.352689116697e-02 
  1.210274941176e-02 
  1.300404242932e-02 
  1.885166871077e-02 
  1.884261187524e-02 
  1.875369979767e-02 
  1.850153775464e-02 
  1.804995662779e-02 
  1.729411867781e-02 
  1.838766859245e-02 
  1.827555943238e-02 
  1.799443140690e-02 
  1.752115846516e-02 
  1.684315902103e-02 
  1.793488366246e-02 
  1.764276813515e-02 
  1.714110763251e-02 
  1.644477652248e-02 
  1.744331650189e-02 
  1.693704760424e-02 
  1.622376763100e-02 
  1.686422506247e-02 
  1.614258598207e-02 
  1.616039478578e-02 
  1.914925268442e-02 
  1.621154246625e-02 
  1.677279934763e-02 
  1.596945191245e-02 
  1.801513333934e-02 
  8.639996904087e-04 
  1.694406074186e-02 
  1.705986061010e-02 
  1.658493692783e-02 
  1.624552899002e-02 
  1.650077839443e-02 
  1.698084352977e-02 
  1.698510514071e-02 
  1.644076027618e-02 
  1.649215985415e-02 
  1.686439866015e-02 
  1.676948144317e-02 
  1.641077700828e-02 
  1.718083283999e-02 
  1.610003887564e-02 
  1.811050562557e-02 
  1.300226137973e-02 
  1.385985316100e-02 
  1.464424535066e-02 
  1.533650147072e-02 
  1.596292190923e-02 
  1.654882649265e-02 
  1.352734047508e-02 
  1.437693627312e-02 
  1.512403531045e-02 
  1.579582927946e-02 
  1.638546427335e-02 
  1.413532920400e-02 
  1.493795659073e-02 
  1.564665785605e-02 
  1.627406791415e-02 
  1.477941755332e-02 
  1.553271091730e-02 
  1.618610980619e-02 
  1.544647962721e-02 
  1.614904594722e-02 
  1.616231383549e-02 
  1.722775437551e-02 
  1.684360340640e-02 
  1.699274380602e-02 
  1.711942642165e-02 
  1.702413217275e-02 
  1.822187661215e-02 
  1.698055782871e-02 
  1.690860214868e-02 
  1.703873398140e-02 
  1.705683428615e-02 
  1.716058517352e-02 
  1.696748333799e-02 
  1.699051482814e-02 
  1.704446585661e-02 
  1.704264653566e-02 
  1.700449116453e-02 
  1.703125053645e-02 
  1.699002984573e-02 
  1.697429161748e-02 
  1.711005190799e-02 
  1.672748520358e-02 
  1.639366917471e-02 
  1.691001391128e-02 
  1.739209447360e-02 
  1.784257813416e-02 
  1.826127511637e-02 
  1.864639481923e-02 
  1.672872246699e-02 
  1.721606492178e-02 
  1.767348317559e-02 
  1.810807764628e-02 
  1.851506285381e-02 
  1.706200059161e-02 
  1.752259072097e-02 
  1.796184345705e-02 
  1.838467545711e-02 
  1.739279712001e-02 
  1.783150432605e-02 
  1.825858392819e-02 
  1.771622207206e-02 
  1.814070979572e-02 
  1.803404389074e-02 
 -5.068672300542e-06 
  1.015328545178e-02 
  1.403871058935e-02 
  1.536218589569e-02 
  1.595491676241e-02 
  1.639561534670e-02 
  9.623052671362e-03 
  1.337624913364e-02 
  1.471808142573e-02 
  1.535161090049e-02 
  1.583350615280e-02 
  1.262785345836e-02 
  1.399507609235e-02 
  1.468696167204e-02 
  1.522486444127e-02 
  1.317383743962e-02 
  1.394695719586e-02 
  1.455690544026e-02 
  1.311503734696e-02 
  1.381967192530e-02 
  1.299768998741e-02 
  1.654410370009e-02 
  1.683016414582e-02 
  1.712644623940e-02 
  1.742419767992e-02 
  1.772708832465e-02 
  1.803330599093e-02 
  1.684729448842e-02 
  1.710893971022e-02 
  1.737886724808e-02 
  1.765658436216e-02 
  1.794300916912e-02 
  1.713635757546e-02 
  1.736546688030e-02 
  1.760939350979e-02 
  1.786829979953e-02 
  1.739644987840e-02 
  1.759410351351e-02 
  1.781241397311e-02 
  1.761690375951e-02 
  1.778656015751e-02 
  1.779177260404e-02 
  1.803337976705e-02 
  1.772710794575e-02 
  1.742430815115e-02 
  1.712629570256e-02 
  1.683028973908e-02 
  1.654407143514e-02 
  1.771602654936e-02 
  1.739895544743e-02 
  1.707754729366e-02 
  1.675332595634e-02 
  1.641865308152e-02 
  1.739231811140e-02 
  1.705700195436e-02 
  1.671155497731e-02 
  1.635523624954e-02 
  1.706174533524e-02 
  1.670467419551e-02 
  1.633101987015e-02 
  1.672836959899e-02 
  1.634306629816e-02 
  1.639460536118e-02 
  1.908594261325e-02 
  1.872242612839e-02 
  1.842918606925e-02 
  1.818661266590e-02 
  1.797949852194e-02 
  1.779175515472e-02 
  1.898001856044e-02 
  1.862261165789e-02 
  1.831216555260e-02 
  1.803671145404e-02 
  1.778646878174e-02 
  1.880594731258e-02 
  1.844653674450e-02 
  1.811896890750e-02 
  1.781259367639e-02 
  1.857999193432e-02 
  1.821604072696e-02 
  1.786842749938e-02 
  1.831921184859e-02 
  1.794301242790e-02 
  1.803408526638e-02 
  1.654576289895e-02 
  1.684754402066e-02 
  1.713646015125e-02 
  1.739680591039e-02 
  1.761691222236e-02 
  1.779152466920e-02 
  1.638643407742e-02 
  1.673552643279e-02 
  1.704743800786e-02 
  1.732540659778e-02 
  1.756444930453e-02 
  1.627329737600e-02 
  1.665082055098e-02 
  1.699703089399e-02 
  1.729885076059e-02 
  1.618668849060e-02 
  1.660895792217e-02 
  1.699400110817e-02 
  1.614895114596e-02 
  1.662143971002e-02 
  1.616344184266e-02 
  1.908563866115e-02 
  1.898011060586e-02 
  1.880589600085e-02 
  1.857998965056e-02 
  1.831897810992e-02 
  1.803505687971e-02 
  1.937227636837e-02 
  1.920499253931e-02 
  1.898525209567e-02 
  1.873282102480e-02 
  1.845819557294e-02 
  1.965057541389e-02 
  1.942103200348e-02 
  1.916084285174e-02 
  1.888491000076e-02 
  1.990738769036e-02 
  1.962173509048e-02 
  1.932640943016e-02 
  2.013593385009e-02 
  1.980139135760e-02 
  2.032689020503e-02 
  1.639526058818e-02 
  1.634296453540e-02 
  1.633117893976e-02 
  1.635545849557e-02 
  1.641797175680e-02 
  1.654636250822e-02 
  1.583368873746e-02 
  1.579501243588e-02 
  1.580109998613e-02 
  1.585715146862e-02 
  1.596360914625e-02 
  1.522468917475e-02 
  1.520289934131e-02 
  1.524074886846e-02 
  1.533694180867e-02 
  1.455726064406e-02 
  1.456310636019e-02 
  1.464409151056e-02 
  1.381927835972e-02 
  1.386021052972e-02 
  1.300010945839e-02 
 -5.580526576856e-07 
 -6.166442356888e-07 
 -5.440175108024e-07 
 -6.849082668576e-07 
 -6.088765567492e-07 
 -1.616668948563e-06 
  1.394933781573e-02 
  1.392574027018e-02 
  1.384455573965e-02 
  1.371287233738e-02 
  1.354713733741e-02 
  1.875104323981e-02 
  1.870821270067e-02 
  1.858326883139e-02 
  1.839056332616e-02 
  1.998931244861e-02 
  1.991815014505e-02 
  1.976716105038e-02 
  2.027335272740e-02 
  2.017062185635e-02 
  2.035290573867e-02 
  1.884892879837e-02 
  1.838861943080e-02 
  1.793505201130e-02 
  1.744271997879e-02 
  1.686252605675e-02 
  1.616279097320e-02 
  1.840594616258e-02 
  1.804291219149e-02 
  1.763751151849e-02 
  1.716903845943e-02 
  1.662170401252e-02 
  1.810678674698e-02 
  1.779662350927e-02 
  1.742482444376e-02 
  1.699396800786e-02 
  1.791888894308e-02 
  1.763588236207e-02 
  1.729847344922e-02 
  1.781208385576e-02 
  1.756461592158e-02 
  1.779096611405e-02 
  2.224210746976e-02 
  2.160926222081e-02 
  2.075302644269e-02 
  2.000069160783e-02 
  1.936105426267e-02 
  1.884863998025e-02 
  2.232071986398e-02 
  2.137967993547e-02 
  2.052244594878e-02 
  1.982073159011e-02 
  1.923498528533e-02 
  2.190690279516e-02 
  2.097191471075e-02 
  2.016271186307e-02 
  1.947888248432e-02 
  2.133735608807e-02 
  2.043911291601e-02 
  1.963554320476e-02 
  2.065529125563e-02 
  1.977669411965e-02 
  1.995644138562e-02 
  2.223687238500e-02 
  2.144703424242e-02 
  2.055679528592e-02 
  1.956710420373e-02 
  1.847917277157e-02 
  1.729355000243e-02 
  2.161016670145e-02 
  2.086187751780e-02 
  2.001335002998e-02 
  1.907899903019e-02 
  1.805060699439e-02 
  2.075062835506e-02 
  2.006978391885e-02 
  1.932675411419e-02 
  1.850201909293e-02 
  2.000348282973e-02 
  1.941211469042e-02 
  1.875338182817e-02 
  1.935993172820e-02 
  1.884125229026e-02 
  1.885456995651e-02 
  2.223770818607e-02 
  2.232227568355e-02 
  2.190644365911e-02 
  2.133772657212e-02 
  2.065369812539e-02 
  1.996185177217e-02 
  2.292716988779e-02 
  2.288437357862e-02 
  2.230429137405e-02 
  2.162196437708e-02 
  2.084688951795e-02 
  2.352031557141e-02 
  2.334524438528e-02 
  2.263077017906e-02 
  2.184800660208e-02 
  2.401585454952e-02 
  2.372863526021e-02 
  2.289931479485e-02 
  2.441223488383e-02 
  2.400579959683e-02 
  2.470870556586e-02 
  1.995094868519e-02 
  1.977624391678e-02 
  1.963448652121e-02 
  1.947746805173e-02 
  1.923212589924e-02 
  1.884715464632e-02 
  1.916357635512e-02 
  1.909821645104e-02 
  1.902707491254e-02 
  1.892778020055e-02 
  1.875206459482e-02 
  1.843684040909e-02 
  1.846655753099e-02 
  1.848388939827e-02 
  1.846802100811e-02 
  1.774698634609e-02 
  1.788268604130e-02 
  1.800513508892e-02 
  1.709052127662e-02 
  1.736543243929e-02 
  1.645357142203e-02 
  1.595773954219e-02 
  1.690014957190e-02 
  1.774518170215e-02 
  1.853620251327e-02 
  1.926143305628e-02 
  1.994899030253e-02 
  1.592017519684e-02 
  1.687168023480e-02 
  1.772201072403e-02 
  1.848059319155e-02 
  1.916379977141e-02 
  1.594531018224e-02 
  1.690099358627e-02 
  1.772317921694e-02 
  1.843645200001e-02 
  1.605276893465e-02 
  1.697778153043e-02 
  1.774730055049e-02 
  1.623197836921e-02 
  1.709014483999e-02 
  1.645593577389e-02 
  1.995283391250e-02 
  2.004585611005e-02 
  2.008457150887e-02 
  2.009607494782e-02 
  2.010926450522e-02 
  2.013475873804e-02 
  2.084856130544e-02 
  2.099020469869e-02 
  2.105488373246e-02 
  2.108729426348e-02 
  2.106457550380e-02 
  2.184466658119e-02 
  2.198908228817e-02 
  2.208239420156e-02 
  2.211692864357e-02 
  2.290251990326e-02 
  2.309111116956e-02 
  2.318939425765e-02 
  2.400425725958e-02 
  2.421781587103e-02 
  2.471676212874e-02 
  1.884618220216e-02 
  1.851424364485e-02 
  1.822181336634e-02 
  1.797736742532e-02 
  1.779216915097e-02 
  1.770064037900e-02 
  1.875205804451e-02 
  1.833946875203e-02 
  1.797444250170e-02 
  1.765783423405e-02 
  1.740316755891e-02 
  1.846771604744e-02 
  1.798310206185e-02 
  1.753082675470e-02 
  1.711659597044e-02 
  1.800574846573e-02 
  1.742766680855e-02 
  1.685259348137e-02 
  1.736509535251e-02 
  1.663090798405e-02 
  1.645601234255e-02 
  1.802799213187e-02 
  1.727631843180e-02 
  1.711088226293e-02 
  1.708317016593e-02 
  1.721958220109e-02 
  1.794762059558e-02 
  1.690092346925e-02 
  1.713753601505e-02 
  1.712119523254e-02 
  1.718335652688e-02 
  1.711043004899e-02 
  1.699943271081e-02 
  1.683498293730e-02 
  1.684367626297e-02 
  1.652817985417e-02 
  1.693740189267e-02 
  1.691457088333e-02 
  1.684958683405e-02 
  1.583943917211e-02 
  1.723808628183e-02 
  4.637111955899e-04 
  1.564390521351e-02 
  1.631981063505e-02 
  1.681854539198e-02 
  1.719783710105e-02 
  1.748459343515e-02 
  1.770303899302e-02 
  1.635865831776e-02 
  1.686621242866e-02 
  1.724266604352e-02 
  1.752587542126e-02 
  1.773208098580e-02 
  1.712065616400e-02 
  1.745224827891e-02 
  1.769598084233e-02 
  1.787515807480e-02 
  1.790500474738e-02 
  1.805810991029e-02 
  1.816430108613e-02 
  1.868607954483e-02 
  1.866406995417e-02 
  1.943805715950e-02 
  1.770011458707e-02 
  1.779225048268e-02 
  1.797724428014e-02 
  1.822183560549e-02 
  1.851402152825e-02 
  1.884684762572e-02 
  1.793076432244e-02 
  1.794965793173e-02 
  1.805560444202e-02 
  1.821274254802e-02 
  1.840622548026e-02 
  1.803983296676e-02 
  1.800122637730e-02 
  1.803211550940e-02 
  1.810627520826e-02 
  1.804694827114e-02 
  1.795409532955e-02 
  1.791834376247e-02 
  1.796556161916e-02 
  1.781177077986e-02 
  1.779137394171e-02 
  7.361364783747e-03 
  8.763823019696e-03 
  9.940226706474e-03 
  1.094506465765e-02 
  1.181657312132e-02 
  1.259310384017e-02 
  7.994133496601e-03 
  9.301397155394e-03 
  1.040012820297e-02 
  1.133971950355e-02 
  1.214938277039e-02 
  8.782570860346e-03 
  9.999187283272e-03 
  1.099218464528e-02 
  1.184016018270e-02 
  9.750719068538e-03 
  1.083797131464e-02 
  1.170149018882e-02 
  1.088959279512e-02 
  1.180031166613e-02 
  1.215309759159e-02 
  1.259239540338e-02 
  1.364107422977e-02 
  1.452291608036e-02 
  1.526582231586e-02 
  1.590662579048e-02 
  1.645984933557e-02 
  1.299508043331e-02 
  1.396549177358e-02 
  1.477166951451e-02 
  1.545416322852e-02 
  1.604253235694e-02 
  1.353437155873e-02 
  1.438234508635e-02 
  1.509227732208e-02 
  1.569808237754e-02 
  1.417849883825e-02 
  1.487838934577e-02 
  1.547336791885e-02 
  1.489188729145e-02 
  1.543282350049e-02 
  1.564474798685e-02 
  1.564278157741e-02 
  1.521446238546e-02 
  1.468389550559e-02 
  1.404924703296e-02 
  1.324671984484e-02 
  1.215331499002e-02 
  1.489115236077e-02 
  1.432139853845e-02 
  1.364506393890e-02 
  1.282525527077e-02 
  1.180035500183e-02 
  1.417830246605e-02 
  1.349131708000e-02 
  1.267734235145e-02 
  1.170137701666e-02 
  1.353398777101e-02 
  1.275684720977e-02 
  1.184005344220e-02 
  1.299452255207e-02 
  1.214946047639e-02 
  1.259307295347e-02 
  1.259280931662e-02 
  1.304039061477e-02 
  1.369494580765e-02 
  1.443933689040e-02 
  1.521730751736e-02 
  1.596141050098e-02 
  1.364124368173e-02 
  1.403548263988e-02 
  1.459033519539e-02 
  1.523686192067e-02 
  1.592002540471e-02 
  1.452319664435e-02 
  1.487510417150e-02 
  1.536898701726e-02 
  1.594539775782e-02 
  1.526563149098e-02 
  1.559971448285e-02 
  1.605303318882e-02 
  1.590691810207e-02 
  1.623219103502e-02 
  1.645820961596e-02 
  1.908541717942e-02 
  1.923600600855e-02 
  1.935796666996e-02 
  1.944478139273e-02 
  1.948226774377e-02 
  1.943855527030e-02 
  1.882710822327e-02 
  1.889139905683e-02 
  1.889882362239e-02 
  1.883086758356e-02 
  1.866399286990e-02 
  1.854741534204e-02 
  1.851407965026e-02 
  1.839579266468e-02 
  1.816443339301e-02 
  1.825831692039e-02 
  1.812196279598e-02 
  1.787503566942e-02 
  1.797013143358e-02 
  1.773215884980e-02 
  1.770260780211e-02 
  1.564575854332e-02 
  1.543263336485e-02 
  1.547363022928e-02 
  1.569789083681e-02 
  1.604272262199e-02 
  1.645893135545e-02 
  1.631968417088e-02 
  1.612910048574e-02 
  1.615554554174e-02 
  1.633693971892e-02 
  1.663146954104e-02 
  1.681881794119e-02 
  1.666814989470e-02 
  1.669204630093e-02 
  1.685301680180e-02 
  1.719772827225e-02 
  1.708366361844e-02 
  1.711687421682e-02 
  1.748479882652e-02 
  1.740347250413e-02 
  1.770184637781e-02 
  1.908600644671e-02 
  1.882689619431e-02 
  1.854730486488e-02 
  1.825813341996e-02 
  1.796990615034e-02 
  1.770104354527e-02 
  1.872242697680e-02 
  1.852588298539e-02 
  1.832123505201e-02 
  1.811835928400e-02 
  1.793052755658e-02 
  1.842924863959e-02 
  1.829293149090e-02 
  1.816118656013e-02 
  1.804012804422e-02 
  1.818658749832e-02 
  1.811034225137e-02 
  1.804705595839e-02 
  1.797964719920e-02 
  1.796562851920e-02 
  1.779134381630e-02 
  1.259259715230e-02 
  1.181678918895e-02 
  1.094504636826e-02 
  9.939956634644e-03 
  8.763955379498e-03 
  7.361548525566e-03 
  1.207301533944e-02 
  1.123132345055e-02 
  1.026864763174e-02 
  9.155963045299e-03 
  7.865460326640e-03 
  1.168441988407e-02 
  1.079235704655e-02 
  9.775383619806e-03 
  8.604659684899e-03 
  1.143743242658e-02 
  1.052710697241e-02 
  9.498127549499e-03 
  1.134223727049e-02 
  1.044837748765e-02 
  1.139151361992e-02 
  2.032724761783e-02 
  1.980123923129e-02 
  1.932653719689e-02 
  1.888476542179e-02 
  1.845817424738e-02 
  1.803490840398e-02 
  1.991581621706e-02 
  1.944582140376e-02 
  1.900174115248e-02 
  1.857010992940e-02 
  1.814093450910e-02 
  1.953599229032e-02 
  1.910299385450e-02 
  1.868033132258e-02 
  1.825881300553e-02 
  1.919418079047e-02 
  1.879157688577e-02 
  1.838483269976e-02 
  1.890020049922e-02 
  1.851554475064e-02 
  1.864687777022e-02 
  1.898642284950e-02 
  1.690537948125e-02 
  1.693207806607e-02 
  1.685284667851e-02 
  1.710557042663e-02 
  1.821575069502e-02 
  1.691183084993e-02 
  1.665983354286e-02 
  1.671500833191e-02 
  1.669995337217e-02 
  1.703208754042e-02 
  1.669549429171e-02 
  1.674570529283e-02 
  1.675011746809e-02 
  1.690344908835e-02 
  1.670702164198e-02 
  1.663231178595e-02 
  1.674319968179e-02 
  1.680786177298e-02 
  1.717250940573e-02 
  1.706045839252e-02 
  2.123064656247e-02 
  2.089293101266e-02 
  2.060745216985e-02 
  2.037881667904e-02 
  2.020042425854e-02 
  2.006118631475e-02 
  2.138979155168e-02 
  2.102455978993e-02 
  2.072182613325e-02 
  2.048354011848e-02 
  2.029679742677e-02 
  2.151006350302e-02 
  2.112287179630e-02 
  2.080847607956e-02 
  2.056152003562e-02 
  2.158736823152e-02 
  2.118644147340e-02 
  2.086527359482e-02 
  2.162275062591e-02 
  2.121589942207e-02 
  2.161386555979e-02 
  2.123011181568e-02 
  2.112399121100e-02 
  2.097808153704e-02 
  2.079370358739e-02 
  2.057429933867e-02 
  2.032626470372e-02 
  2.058544630813e-02 
  2.045730094249e-02 
  2.030138573538e-02 
  2.011999981155e-02 
  1.991591141784e-02 
  2.002719875650e-02 
  1.988144073774e-02 
  1.971680768722e-02 
  1.953576482927e-02 
  1.953521883397e-02 
  1.937228820182e-02 
  1.919424435294e-02 
  1.908134488549e-02 
  1.889997376627e-02 
  1.864745321383e-02 
  1.908496859759e-02 
  1.950727279050e-02 
  2.003820879074e-02 
  2.072810743584e-02 
  2.163426421115e-02 
  2.283499815538e-02 
  1.923592410221e-02 
  1.970226242840e-02 
  2.031698168236e-02 
  2.114625004540e-02 
  2.226661097764e-02 
  1.935776346719e-02 
  1.988532046225e-02 
  2.061367414494e-02 
  2.163253655090e-02 
  1.944467266665e-02 
  2.005328799139e-02 
  2.093918300260e-02 
  1.948228124774e-02 
  2.020133616798e-02 
  1.943787840386e-02 
  2.283498872144e-02 
  2.163433854116e-02 
  2.072814087738e-02 
  2.003827213321e-02 
  1.950731735347e-02 
  1.908503426177e-02 
  2.218684458647e-02 
  2.122536551015e-02 
  2.046753614628e-02 
  1.986441024927e-02 
  1.937198793803e-02 
  2.163350357904e-02 
  2.084118146897e-02 
  2.019132187669e-02 
  1.965023124244e-02 
  2.114817758874e-02 
  2.047839457422e-02 
  1.990692492094e-02 
  2.071709643296e-02 
  2.013540658621e-02 
  2.032590397766e-02 
  2.506819352842e-02 
  2.479805233402e-02 
  2.443599818291e-02 
  2.398301906488e-02 
  2.344356074392e-02 
  2.283656871762e-02 
  2.368714754327e-02 
  2.340336309628e-02 
  2.305126895254e-02 
  2.264095880174e-02 
  2.218671140353e-02 
  2.257713562261e-02 
  2.230180131301e-02 
  2.198457980237e-02 
  2.163376511407e-02 
  2.168077288357e-02 
  2.142731926606e-02 
  2.114798741341e-02 
  2.094819298413e-02 
  2.071709485942e-02 
  2.032490399326e-02 
  2.479362009765e-02 
  2.353627432197e-02 
  2.218776505607e-02 