# vtk DataFile Version 2
NuDG++ 2D simulation
ASCII
DATASET UNSTRUCTURED_GRID

POINTS 7854 double
 -1.656250060000e-01  -2.000000030000e-01  0.0
 -1.725000054000e-01  -1.908888817000e-01  0.0
 -1.793750048000e-01  -1.817777604000e-01  0.0
 -1.862500042000e-01  -1.726666391000e-01  0.0
 -1.931250036000e-01  -1.635555178000e-01  0.0
 -2.000000030000e-01  -1.544443965000e-01  0.0
 -1.725000054000e-01  -2.000000030000e-01  0.0
 -1.793750048000e-01  -1.908888817000e-01  0.0
 -1.862500042000e-01  -1.817777604000e-01  0.0
 -1.931250036000e-01  -1.726666391000e-01  0.0
 -2.000000030000e-01  -1.635555178000e-01  0.0
 -1.793750048000e-01  -2.000000030000e-01  0.0
 -1.862500042000e-01  -1.908888817000e-01  0.0
 -1.931250036000e-01  -1.817777604000e-01  0.0
 -2.000000030000e-01  -1.726666391000e-01  0.0
 -1.862500042000e-01  -2.000000030000e-01  0.0
 -1.931250036000e-01  -1.908888817000e-01  0.0
 -2.000000030000e-01  -1.817777604000e-01  0.0
 -1.931250036000e-01  -2.000000030000e-01  0.0
 -2.000000030000e-01  -1.908888817000e-01  0.0
 -2.000000030000e-01  -2.000000030000e-01  0.0
 -6.428571790000e-02  -1.700000018000e-01  0.0
 -7.080357372400e-02  -1.760000020400e-01  0.0
 -7.732142954800e-02  -1.820000022800e-01  0.0
 -8.383928537200e-02  -1.880000025200e-01  0.0
 -9.035714119600e-02  -1.940000027600e-01  0.0
 -9.687499702000e-02  -2.000000030000e-01  0.0
 -6.392857432000e-02  -1.760000020400e-01  0.0
 -7.044643014400e-02  -1.820000022800e-01  0.0
 -7.696428596800e-02  -1.880000025200e-01  0.0
 -8.348214179200e-02  -1.940000027600e-01  0.0
 -8.999999761600e-02  -2.000000030000e-01  0.0
 -6.357143074000e-02  -1.820000022800e-01  0.0
 -7.008928656400e-02  -1.880000025200e-01  0.0
 -7.660714238800e-02  -1.940000027600e-01  0.0
 -8.312499821200e-02  -2.000000030000e-01  0.0
 -6.321428716000e-02  -1.880000025200e-01  0.0
 -6.973214298400e-02  -1.940000027600e-01  0.0
 -7.624999880800e-02  -2.000000030000e-01  0.0
 -6.285714358000e-02  -1.940000027600e-01  0.0
 -6.937499940400e-02  -2.000000030000e-01  0.0
 -6.250000000000e-02  -2.000000030000e-01  0.0
 -2.000000030000e-01  -1.544443965000e-01  0.0
 -1.900000036000e-01  -1.478412374800e-01  0.0
 -1.800000042000e-01  -1.412380784600e-01  0.0
 -1.700000048000e-01  -1.346349194400e-01  0.0
 -1.600000054000e-01  -1.280317604200e-01  0.0
 -1.500000060000e-01  -1.214286014000e-01  0.0
 -2.000000030000e-01  -1.453332975600e-01  0.0
 -1.900000036000e-01  -1.387301385400e-01  0.0
 -1.800000042000e-01  -1.321269795200e-01  0.0
 -1.700000048000e-01  -1.255238205000e-01  0.0
 -1.600000054000e-01  -1.189206614800e-01  0.0
 -2.000000030000e-01  -1.362221986200e-01  0.0
 -1.900000036000e-01  -1.296190396000e-01  0.0
 -1.800000042000e-01  -1.230158805800e-01  0.0
 -1.700000048000e-01  -1.164127215600e-01  0.0
 -2.000000030000e-01  -1.271110996800e-01  0.0
 -1.900000036000e-01  -1.205079406600e-01  0.0
 -1.800000042000e-01  -1.139047816400e-01  0.0
 -2.000000030000e-01  -1.180000007400e-01  0.0
 -1.900000036000e-01  -1.113968417200e-01  0.0
 -2.000000030000e-01  -1.088889018000e-01  0.0
 -1.500000060000e-01  -1.214286014000e-01  0.0
 -1.600000054000e-01  -1.280317604200e-01  0.0
 -1.700000048000e-01  -1.346349194400e-01  0.0
 -1.800000042000e-01  -1.412380784600e-01  0.0
 -1.900000036000e-01  -1.478412374800e-01  0.0
 -2.000000030000e-01  -1.544443965000e-01  0.0
 -1.500000060000e-01  -1.311428814800e-01  0.0
 -1.600000054000e-01  -1.377460405000e-01  0.0
 -1.700000048000e-01  -1.443491995200e-01  0.0
 -1.800000042000e-01  -1.509523585400e-01  0.0
 -1.900000036000e-01  -1.575555175600e-01  0.0
 -1.500000060000e-01  -1.408571615600e-01  0.0
 -1.600000054000e-01  -1.474603205800e-01  0.0
 -1.700000048000e-01  -1.540634796000e-01  0.0
 -1.800000042000e-01  -1.606666386200e-01  0.0
 -1.500000060000e-01  -1.505714416400e-01  0.0
 -1.600000054000e-01  -1.571746006600e-01  0.0
 -1.700000048000e-01  -1.637777596800e-01  0.0
 -1.500000060000e-01  -1.602857217200e-01  0.0
 -1.600000054000e-01  -1.668888807400e-01  0.0
 -1.500000060000e-01  -1.700000018000e-01  0.0
 -1.500000060000e-01  -7.285714149000e-02  0.0
 -1.600000054000e-01  -8.006349355200e-02  0.0
 -1.700000048000e-01  -8.726984561400e-02  0.0
 -1.800000042000e-01  -9.447619767600e-02  0.0
 -1.900000036000e-01  -1.016825497380e-01  0.0
 -2.000000030000e-01  -1.088889018000e-01  0.0
 -1.500000060000e-01  -8.257143347200e-02  0.0
 -1.600000054000e-01  -8.977778553400e-02  0.0
 -1.700000048000e-01  -9.698413759600e-02  0.0
 -1.800000042000e-01  -1.041904896580e-01  0.0
 -1.900000036000e-01  -1.113968417200e-01  0.0
 -1.500000060000e-01  -9.228572545400e-02  0.0
 -1.600000054000e-01  -9.949207751600e-02  0.0
 -1.700000048000e-01  -1.066984295780e-01  0.0
 -1.800000042000e-01  -1.139047816400e-01  0.0
 -1.500000060000e-01  -1.020000174360e-01  0.0
 -1.600000054000e-01  -1.092063694980e-01  0.0
 -1.700000048000e-01  -1.164127215600e-01  0.0
 -1.500000060000e-01  -1.117143094180e-01  0.0
 -1.600000054000e-01  -1.189206614800e-01  0.0
 -1.500000060000e-01  -1.214286014000e-01  0.0
  1.832975030000e+00  -4.625000060000e-02  0.0
  1.841380024000e+00  -7.700000108000e-02  0.0
  1.849785018000e+00  -1.077500015600e-01  0.0
  1.858190012000e+00  -1.385000020400e-01  0.0
  1.866595006000e+00  -1.692500025200e-01  0.0
  1.875000000000e+00  -2.000000030000e-01  0.0
  1.866380024000e+00  -5.649999976400e-02  0.0
  1.874785018000e+00  -8.725000024400e-02  0.0
  1.883190012000e+00  -1.180000007240e-01  0.0
  1.891595006000e+00  -1.487500012040e-01  0.0
  1.900000000000e+00  -1.795000016840e-01  0.0
  1.899785018000e+00  -6.674999892800e-02  0.0
  1.908190012000e+00  -9.749999940800e-02  0.0
  1.916595006000e+00  -1.282499998880e-01  0.0
  1.925000000000e+00  -1.590000003680e-01  0.0
  1.933190012000e+00  -7.699999809200e-02  0.0
  1.941595006000e+00  -1.077499985720e-01  0.0
  1.950000000000e+00  -1.384999990520e-01  0.0
  1.966595006000e+00  -8.724999725600e-02  0.0
  1.975000000000e+00  -1.179999977360e-01  0.0
  2.000000000000e+00  -9.749999642000e-02  0.0
 -1.500000060000e-01  -1.700000018000e-01  0.0
 -1.444000050800e-01  -1.630000025200e-01  0.0
 -1.388000041600e-01  -1.560000032400e-01  0.0
 -1.332000032400e-01  -1.490000039600e-01  0.0
 -1.276000023200e-01  -1.420000046800e-01  0.0
 -1.220000014000e-01  -1.350000054000e-01  0.0
 -1.500000060000e-01  -1.602857217200e-01  0.0
 -1.444000050800e-01  -1.532857224400e-01  0.0
 -1.388000041600e-01  -1.462857231600e-01  0.0
 -1.332000032400e-01  -1.392857238800e-01  0.0
 -1.276000023200e-01  -1.322857246000e-01  0.0
 -1.500000060000e-01  -1.505714416400e-01  0.0
 -1.444000050800e-01  -1.435714423600e-01  0.0
 -1.388000041600e-01  -1.365714430800e-01  0.0
 -1.332000032400e-01  -1.295714438000e-01  0.0
 -1.500000060000e-01  -1.408571615600e-01  0.0
 -1.444000050800e-01  -1.338571622800e-01  0.0
 -1.388000041600e-01  -1.268571630000e-01  0.0
 -1.500000060000e-01  -1.311428814800e-01  0.0
 -1.444000050800e-01  -1.241428822000e-01  0.0
 -1.500000060000e-01  -1.214286014000e-01  0.0
  2.849999964000e-01  -2.333333530000e-02  0.0
  2.844999968800e-01  -4.666666836000e-02  0.0
  2.839999973600e-01  -7.000000142000e-02  0.0
  2.834999978400e-01  -9.333333448000e-02  0.0
  2.829999983200e-01  -1.166666675400e-01  0.0
  2.824999988000e-01  -1.400000006000e-01  0.0
  2.979999959200e-01  -3.266666830000e-02  0.0
  2.974999964000e-01  -5.600000136000e-02  0.0
  2.969999968800e-01  -7.933333442000e-02  0.0
  2.964999973600e-01  -1.026666674800e-01  0.0
  2.959999978400e-01  -1.260000005400e-01  0.0
  3.109999954400e-01  -4.200000130000e-02  0.0
  3.104999959200e-01  -6.533333436000e-02  0.0
  3.099999964000e-01  -8.866666742000e-02  0.0
  3.094999968800e-01  -1.120000004800e-01  0.0
  3.239999949600e-01  -5.133333430000e-02  0.0
  3.234999954400e-01  -7.466666736000e-02  0.0
  3.229999959200e-01  -9.800000042000e-02  0.0
  3.369999944800e-01  -6.066666730000e-02  0.0
  3.364999949600e-01  -8.400000036000e-02  0.0
  3.499999940000e-01  -7.000000030000e-02  0.0
 -1.071429029000e-01  -1.700000018000e-01  0.0
 -9.857146590000e-02  -1.700000018000e-01  0.0
 -9.000002890000e-02  -1.700000018000e-01  0.0
 -8.142859190000e-02  -1.700000018000e-01  0.0
 -7.285715490000e-02  -1.700000018000e-01  0.0
 -6.428571790000e-02  -1.700000018000e-01  0.0
 -1.037143230360e-01  -1.630000025200e-01  0.0
 -9.514288603600e-02  -1.630000025200e-01  0.0
 -8.657144903600e-02  -1.630000025200e-01  0.0
 -7.800001203600e-02  -1.630000025200e-01  0.0
 -6.942857503600e-02  -1.630000025200e-01  0.0
 -1.002857431720e-01  -1.560000032400e-01  0.0
 -9.171430617200e-02  -1.560000032400e-01  0.0
 -8.314286917200e-02  -1.560000032400e-01  0.0
 -7.457143217200e-02  -1.560000032400e-01  0.0
 -9.685716330800e-02  -1.490000039600e-01  0.0
 -8.828572630800e-02  -1.490000039600e-01  0.0
 -7.971428930800e-02  -1.490000039600e-01  0.0
 -9.342858344400e-02  -1.420000046800e-01  0.0
 -8.485714644400e-02  -1.420000046800e-01  0.0
 -9.000000358000e-02  -1.350000054000e-01  0.0
 -1.312499940000e-01  -2.000000030000e-01  0.0
 -1.264285757800e-01  -1.940000027600e-01  0.0
 -1.216071575600e-01  -1.880000025200e-01  0.0
 -1.167857393400e-01  -1.820000022800e-01  0.0
 -1.119643211200e-01  -1.760000020400e-01  0.0
 -1.071429029000e-01  -1.700000018000e-01  0.0
 -1.349999964000e-01  -1.940000027600e-01  0.0
 -1.301785781800e-01  -1.880000025200e-01  0.0
 -1.253571599600e-01  -1.820000022800e-01  0.0
 -1.205357417400e-01  -1.760000020400e-01  0.0
 -1.157143235200e-01  -1.700000018000e-01  0.0
 -1.387499988000e-01  -1.880000025200e-01  0.0
 -1.339285805800e-01  -1.820000022800e-01  0.0
 -1.291071623600e-01  -1.760000020400e-01  0.0
 -1.242857441400e-01  -1.700000018000e-01  0.0
 -1.425000012000e-01  -1.820000022800e-01  0.0
 -1.376785829800e-01  -1.760000020400e-01  0.0
 -1.328571647600e-01  -1.700000018000e-01  0.0
 -1.462500036000e-01  -1.760000020400e-01  0.0
 -1.414285853800e-01  -1.700000018000e-01  0.0
 -1.500000060000e-01  -1.700000018000e-01  0.0
[...]
POINT_DATA 7854
SCALARS field1 double 1
LOOKUP_TABLE default
  6.061607077121e-07 
  1.082665567971e-02 
  1.219570513402e-02 
  1.229331458374e-02 
  1.349807869048e-02 
  1.581537992710e-02 
 -4.059373986858e-06 
  8.990127287925e-03 
  9.993903961145e-03 
  1.070003468891e-02 
  1.296073809784e-02 
  1.272286477272e-06 
  6.796240090811e-03 
  7.906466778746e-03 
  9.963828880519e-03 
  1.192901815799e-05 
  4.602564741298e-03 
  6.804457464113e-03 
 -2.424219159976e-06 
  3.473609871358e-03 
  3.642243587438e-06 
  3.023536680120e-02 
  2.942636528118e-02 
  2.796530091393e-02 
  2.458616788872e-02 
  1.665118696902e-02 
 -1.049517270650e-06 
  2.993986559865e-02 
  2.848969562104e-02 
  2.509270285906e-02 
  1.702204090838e-02 
 -3.454056031208e-07 
  2.898043471254e-02 
  2.556425526927e-02 
  1.737268355144e-02 
 -3.977318467025e-07 
  2.600477612630e-02 
  1.770052155977e-02 
 -3.887932235399e-07 
  1.800426612771e-02 
 -2.613653503015e-07 
 -5.175839316219e-07 
  1.581174616782e-02 
  1.828627371690e-02 
  2.083133557711e-02 
  2.293849441810e-02 
  2.461585003201e-02 
  2.598317802633e-02 
  1.849716150070e-02 
  2.065537541297e-02 
  2.277054537028e-02 
  2.450713253584e-02 
  2.590105645219e-02 
  2.102836433396e-02 
  2.290524116650e-02 
  2.461666043008e-02 
  2.601300024781e-02 
  2.339909610264e-02 
  2.501368649375e-02 
  2.636601630522e-02 
  2.561275089790e-02 
  2.698682637285e-02 
  2.766793765973e-02 
  2.598370465395e-02 
  2.461581357902e-02 
  2.293860410690e-02 
  2.083098345159e-02 
  1.828699710674e-02 
  1.581292537873e-02 
  2.486577839254e-02 
  2.324415030618e-02 
  2.123658731057e-02 
  1.869287894134e-02 
  1.566523104910e-02 
  2.375814948450e-02 
  2.188426931671e-02 
  1.952919660285e-02 
  1.654767351174e-02 
  2.269315412239e-02 
  2.057040244135e-02 
  1.788199234503e-02 
  2.171375281614e-02 
  1.936358391450e-02 
  2.083946745779e-02 
  3.030229210741e-02 
  3.032516468910e-02 
  3.015307323841e-02 
  2.970938513477e-02 
  2.892033790825e-02 
  2.766936635370e-02 
  2.961986234673e-02 
  2.938555210139e-02 
  2.889945366130e-02 
  2.811041274017e-02 
  2.698619374280e-02 
  2.886098404253e-02 
  2.834246659191e-02 
  2.751770535155e-02 
  2.636587608201e-02 
  2.801307706240e-02 
  2.718451089428e-02 
  2.601250800011e-02 
  2.705396076617e-02 
  2.590089441628e-02 
  2.598307535976e-02 
  3.083614814964e-02 
  2.613666461540e-02 
  2.680687317387e-02 
  2.614665218569e-02 
  2.895358721178e-02 
  6.942815567735e-04 
  2.733403355631e-02 
  2.757829879432e-02 
  2.681192832218e-02 
  2.656233628950e-02 
  2.612215175553e-02 
  2.731806278303e-02 
  2.748514131499e-02 
  2.659416372765e-02 
  2.694074456124e-02 
  2.715704836870e-02 
  2.709548467481e-02 
  2.637922774477e-02 
  2.762681608561e-02 
  2.608352187104e-02 
  2.841703640501e-02 
  2.083903067574e-02 
  2.228228336470e-02 
  2.356720449899e-02 
  2.471093094416e-02 
  2.573784658740e-02 
  2.665731747203e-02 
  2.171329072957e-02 
  2.310798074742e-02 
  2.434277073644e-02 
  2.543727505938e-02 
  2.639927790352e-02 
  2.269358516826e-02 
  2.402235267699e-02 
  2.518301321152e-02 
  2.619580744397e-02 
  2.375868870501e-02 
  2.498826286936e-02 
  2.604945712260e-02 
  2.486584951947e-02 
  2.597364373929e-02 
  2.598395313896e-02 
  2.772847029067e-02 
  2.711721128924e-02 
  2.739556793298e-02 
  2.751889184286e-02 
  2.746062574525e-02 
  2.888711878428e-02 
  2.731891333656e-02 
  2.725062704167e-02 
  2.744296310973e-02 
  2.745536879919e-02 
  2.759696514384e-02 
  2.730691195469e-02 
  2.739026129953e-02 
  2.744865367709e-02 
  2.744082503367e-02 
  2.744826338833e-02 
  2.744976799364e-02 
  2.741037870074e-02 
  2.742137699806e-02 
  2.754562782951e-02 
  2.705405537757e-02 
  2.647191069832e-02 
  2.733749933612e-02 
  2.813969796900e-02 
  2.889080899477e-02 
  2.959048935983e-02 
  3.023865810140e-02 
  2.706052359959e-02 
  2.787467426409e-02 
  2.864201751294e-02 
  2.936554615514e-02 
  3.004473366621e-02 
  2.760823995043e-02 
  2.837950723101e-02 
  2.911591833911e-02 
  2.982083738857e-02 
  2.814852889212e-02 
  2.888371884823e-02 
  2.960003532168e-02 
  2.867551442144e-02 
  2.938675447966e-02 
  2.919154969906e-02 
 -2.317210865624e-06 
  1.419777253171e-02 
  2.111549759027e-02 
  2.418684471883e-02 
  2.561498755045e-02 
  2.647225598114e-02 
  1.344111265505e-02 
  2.009971615411e-02 
  2.314317969768e-02 
  2.461587974527e-02 
  2.554963690441e-02 
  1.895530277892e-02 
  2.197962435668e-02 
  2.352011736409e-02 
  2.453910126648e-02 
  2.066767593062e-02 
  2.230190797708e-02 
  2.343124746877e-02 
  2.093405089627e-02 
  2.220644765412e-02 
  2.083704314539e-02 
  2.665691788049e-02 
  2.715722629591e-02 
  2.765873163059e-02 
  2.816408073021e-02 
  2.867336833896e-02 
  2.919105902973e-02 
  2.716572342712e-02 
  2.760934682138e-02 
  2.806493773271e-02 
  2.853450428743e-02 
  2.901860859292e-02 
  2.763284374321e-02 
  2.802307482648e-02 
  2.843562251062e-02 
  2.887324622536e-02 
  2.804990255265e-02 
  2.838842056353e-02 
  2.876080925828e-02 
  2.840502544452e-02 
  2.869390274323e-02 
  2.868059515094e-02 
  2.919089807203e-02 
  2.867347125582e-02 
  2.816409017258e-02 
  2.765870586428e-02 
  2.715728789585e-02 
  2.665701736161e-02 
  2.867566976934e-02 
  2.814150163192e-02 
  2.760174891980e-02 
  2.705573840103e-02 
  2.649862056657e-02 
  2.814822857577e-02 
  2.758420540162e-02 
  2.700539512601e-02 
  2.640980806655e-02 
  2.760825227686e-02 
  2.700871307294e-02 
  2.638478654017e-02 
  2.706047572327e-02 
  2.641816228015e-02 
  2.647252885314e-02 
  3.087530215206e-02 
  3.026113432465e-02 
  2.976203198231e-02 
  2.934751070533e-02 
  2.899524835058e-02 
  2.868070987017e-02 
  3.071438910079e-02 
  3.010779891332e-02 
  2.958207279097e-02 
  2.911616098736e-02 
  2.869382380786e-02 
  3.043520765631e-02 
  2.982881844080e-02 
  2.927580733151e-02 
  2.876085577001e-02 
  3.007115361646e-02 
  2.945768449008e-02 
  2.887329085912e-02 
  2.964902620257e-02 
  2.901855489835e-02 
  2.919159906320e-02 
  2.665715273270e-02 
  2.716581747502e-02 
  2.763282962137e-02 
  2.804999142750e-02 
  2.840517519170e-02 
  2.868024511348e-02 
  2.639946717066e-02 
  2.696191195676e-02 
  2.747126633733e-02 
  2.792258161882e-02 
  2.830519154746e-02 
  2.619566136461e-02 
  2.681239055619e-02 
  2.737225024120e-02 
  2.786469475342e-02 
  2.604928153479e-02 
  2.672981569662e-02 
  2.734653050096e-02 
  2.597360976993e-02 
  2.672624605968e-02 
  2.598391987700e-02 
  3.087494363243e-02 
  3.071439392819e-02 
  3.043515515919e-02 
  3.007117438486e-02 
  2.964886162418e-02 
  2.919245709207e-02 
  3.137268332668e-02 
  3.110413610754e-02 
  3.074962859989e-02 
  3.034022570339e-02 
  2.989448467962e-02 
  3.185302181076e-02 
  3.147948334866e-02 
  3.105610131773e-02 
  3.060674948282e-02 
  3.229570483338e-02 
  3.182805538741e-02 
  3.134579306716e-02 
  3.268991528592e-02 
  3.214115036966e-02 
  3.302180159925e-02 
  2.647258440550e-02 
  2.641837602162e-02 
  2.638501154694e-02 
  2.640991520973e-02 
  2.649833061077e-02 
  2.665736345024e-02 
  2.554988151749e-02 
  2.550623323537e-02 
  2.550441094405e-02 
  2.558076552426e-02 
  2.573800726407e-02 
  2.453919303524e-02 
  2.452295679757e-02 
  2.456821674798e-02 
  2.471114438305e-02 
  2.343154647989e-02 
  2.345420700233e-02 
  2.356678274527e-02 
  2.220641602643e-02 
  2.228229287321e-02 
  2.083819439902e-02 
 -3.371375507322e-07 
 -4.034243584390e-07 
 -3.273286879772e-07 
 -4.605182155684e-07 
 -3.834845379874e-07 
 -1.275530346675e-06 
  1.964729643386e-02 
  1.960548577214e-02 
  1.947411335787e-02 
  1.926854090526e-02 
  1.901392838387e-02 
  2.839775277978e-02 
  2.831911020457e-02 
  2.810534555271e-02 
  2.778806844976e-02 
  3.167885576486e-02 
  3.155118401054e-02 
  3.128358070633e-02 
  3.274472143292e-02 
  3.256174103160e-02 
  3.307681693037e-02 
  3.030033745856e-02 
  2.961928972971e-02 
  2.886078075633e-02 
  2.801316739094e-02 
  2.705370601942e-02 
  2.598370982814e-02 
  2.961259293875e-02 
  2.903180810668e-02 
  2.836556346808e-02 
  2.759823855663e-02 
  2.672627069532e-02 
  2.912847842801e-02 
  2.863236488709e-02 
  2.803628428011e-02 
  2.734656208001e-02 
  2.882170538206e-02 
  2.839223978313e-02 
  2.786470009840e-02 
  2.867908096421e-02 
  2.830524582776e-02 
  2.867982349691e-02 
  3.557641090066e-02 
  3.470114413871e-02 
  3.337810319938e-02 
  3.215245245782e-02 
  3.112573553902e-02 
  3.030181348249e-02 
  3.583315136693e-02 
  3.439471183083e-02 
  3.301764830487e-02 
  3.185304166192e-02 
  3.086159469284e-02 
  3.525615718017e-02 
  3.374339113577e-02 
  3.242124585533e-02 
  3.127929187179e-02 
  3.434331684085e-02 
  3.287770959289e-02 
  3.157897488608e-02 
  3.324286741680e-02 
  3.181441031765e-02 
  3.203537169746e-02 
  3.557381902390e-02 
  3.430909994560e-02 
  3.288587487290e-02 
  3.130532732247e-02 
  2.956612123584e-02 
  2.766832544356e-02 
  3.470176277243e-02 
  3.348147033501e-02 
  3.210584068039e-02 
  3.058852788771e-02 
  2.892023935035e-02 
  3.337745903039e-02 
  3.227963695419e-02 
  3.105579572735e-02 
  2.970897722013e-02 
  3.215320974661e-02 
  3.121101715629e-02 
  3.015368598209e-02 
  3.112486846619e-02 
  3.032456289761e-02 
  3.030495571183e-02 
  3.557436984041e-02 
  3.583333634342e-02 
  3.525539369412e-02 
  3.434368314467e-02 
  3.324214235825e-02 
  3.203849982698e-02 
  3.668086237612e-02 
  3.674173019605e-02 
  3.591289914628e-02 
  3.479384753255e-02 
  3.352761087572e-02 
  3.762910378889e-02 
  3.749790223087e-02 
  3.645297307709e-02 
  3.514783973717e-02 
  3.841953741385e-02 
  3.811565137161e-02 
  3.687736339272e-02 
  3.905293884143e-02 
  3.857715982854e-02 
  3.952603423642e-02 
  3.203226843805e-02 
  3.181355890500e-02 
  3.157812698189e-02 
  3.127906572520e-02 
  3.086108564366e-02 
  3.029931005989e-02 
  3.075790824506e-02 
  3.067513302993e-02 
  3.056971373679e-02 
  3.040398510645e-02 
  3.012598121343e-02 
  2.956437094627e-02 
  2.963168210983e-02 
  2.967800786480e-02 
  2.966413844799e-02 
  2.842479563533e-02 
  2.867570950740e-02 
  2.890781127484e-02 
  2.734012351397e-02 
  2.782385313568e-02 
  2.631220581617e-02 
  2.545804680201e-02 
  2.699798916535e-02 
  2.840683386649e-02 
  2.970836103311e-02 
  3.090752099877e-02 
  3.203104032100e-02 
  2.536182913368e-02 
  2.695314623677e-02 
  2.836438207083e-02 
  2.962574374583e-02 
  3.075799668375e-02 
  2.540954570513e-02 
  2.700342756965e-02 
  2.837305250833e-02 
  2.956408068439e-02 
  2.559714080125e-02 
  2.713727590056e-02 
  2.842512493564e-02 
  2.590727127298e-02 
  2.733997854178e-02 
  2.631351672206e-02 
  3.203438169436e-02 
  3.216118794673e-02 
  3.224630081751e-02 
  3.228664404293e-02 
  3.230626937109e-02 
  3.232486684427e-02 
  3.352846897634e-02 
  3.374316341896e-02 
  3.386007686494e-02 
  3.391090880409e-02 
  3.389012989147e-02 
  3.514671187793e-02 
  3.540073016176e-02 
  3.555062853461e-02 
  3.559931932862e-02 
  3.687871652823e-02 
  3.718370261317e-02 
  3.734724532935e-02 
  3.857646290206e-02 
  3.891076380508e-02 
  3.952929251056e-02 
  3.029788861391e-02 
  2.976382476666e-02 
  2.929348456247e-02 
  2.890144382301e-02 
  2.860582115674e-02 
  2.846704143596e-02 
  3.012624498088e-02 
  2.946904833449e-02 
  2.887815247911e-02 
  2.836063073451e-02 
  2.794855509367e-02 
  2.966385062633e-02 
  2.887691442265e-02 
  2.813428561380e-02 
  2.744646427915e-02 
  2.890797584419e-02 
  2.794834408029e-02 
  2.698659378151e-02 
  2.782369434430e-02 
  2.660238221027e-02 
  2.631364915051e-02 
  2.877491852666e-02 
  2.767805674634e-02 
  2.738983203860e-02 
  2.740271696597e-02 
  2.776931120309e-02 
  2.878407354988e-02 
  2.732969155002e-02 
  2.753386042826e-02 
  2.753997175847e-02 
  2.769444572415e-02 
  2.786600362749e-02 
  2.733753602006e-02 
  2.714316779071e-02 
  2.707425441823e-02 
  2.662857673098e-02 
  2.730869529126e-02 
  2.742286449784e-02 
  2.714528674981e-02 
  2.424579545902e-02 
  2.709110261443e-02 
  3.425615521110e-04 
  2.498976954766e-02 
  2.613172393729e-02 
  2.697563151143e-02 
  2.761726074110e-02 
  2.810155040101e-02 
  2.846996676131e-02 
  2.619889838689e-02 
  2.706354369265e-02 
  2.770088882279e-02 
  2.817980338771e-02 
  2.852894471137e-02 
  2.749063074239e-02 
  2.806115427423e-02 
  2.847494479943e-02 
  2.877831744396e-02 
  2.882303887705e-02 
  2.909204859399e-02 
  2.927392449847e-02 
  3.015065169254e-02 
  3.012243420021e-02 
  3.142967129225e-02 
  2.846668131297e-02 
  2.860587218566e-02 
  2.890135411545e-02 
  2.929359479726e-02 
  2.976374217611e-02 
  3.029836799639e-02 
  2.886157573201e-02 
  2.888037198586e-02 
  2.903908320233e-02 
  2.929141617883e-02 
  2.961270548774e-02 
  2.905754390332e-02 
  2.897206616186e-02 
  2.900923214164e-02 
  2.912795305373e-02 
  2.907866591736e-02 
  2.890058760052e-02 
  2.882182147423e-02 
  2.895004336128e-02 
  2.867887991962e-02 
  2.868044873341e-02 
  1.102877023674e-02 
  1.335445074113e-02 
  1.533586442435e-02 
  1.703359029540e-02 
  1.850526548216e-02 
  1.980685509754e-02 
  1.200810267145e-02 
  1.422143274277e-02 
  1.609526351077e-02 
  1.769385242359e-02 
  1.906768460651e-02 
  1.324331252463e-02 
  1.534789538995e-02 
  1.707318717021e-02 
  1.853200737029e-02 
  1.476629862140e-02 
  1.670776152266e-02 
  1.824723550779e-02 
  1.656831450246e-02 
  1.827559704605e-02 
  1.858992284116e-02 
  1.980525853504e-02 
  2.157615857460e-02 
  2.305706562026e-02 
  2.430506743937e-02 
  2.537896755324e-02 
  2.631620533405e-02 
  2.049550760740e-02 
  2.213012846723e-02 
  2.348486026277e-02 
  2.463110252988e-02 
  2.561564426200e-02 
  2.140932566647e-02 
  2.283952779794e-02 
  2.403250185418e-02 
  2.504951183885e-02 
  2.249963079156e-02 
  2.368239971275e-02 
  2.468166201243e-02 
  2.370999755401e-02 
  2.462392597268e-02 
  2.499093624741e-02 
  2.498838427236e-02 
  2.424860202723e-02 
  2.332071085754e-02 
  2.216987980095e-02 
  2.066110637394e-02 
  1.859036541183e-02 
  2.370927371555e-02 
  2.273711887369e-02 
  2.156491229202e-02 
  2.011701831212e-02 
  1.827563012033e-02 
  2.249951121752e-02 
  2.133254165348e-02 
  1.993748132854e-02 
  1.824710928884e-02 
  2.140898717232e-02 
  2.009213181801e-02 
  1.853183464957e-02 
  2.049489743214e-02 
  1.906780676549e-02 
  1.980667874244e-02 
  1.980509324618e-02 
  2.055597828486e-02 
  2.164621421283e-02 
  2.289129790743e-02 
  2.418702070148e-02 
  2.545948270422e-02 
  2.157635737077e-02 
  2.222608931682e-02 
  2.314938437261e-02 
  2.422474674984e-02 
  2.536175271979e-02 
  2.305725309464e-02 
  2.363572894759e-02 
  2.445307918136e-02 
  2.540942437610e-02 
  2.430484516461e-02 
  2.484944190072e-02 
  2.559724521720e-02 
  2.537917908691e-02 
  2.590755704503e-02 
  2.631476237400e-02 
  3.087491754582e-02 
  3.112246434876e-02 
  3.132078406556e-02 
  3.145984710839e-02 
  3.151562969907e-02 
  3.143029312200e-02 
  3.042663059697e-02 
  3.052627285361e-02 
  3.053145425218e-02 
  3.041112950643e-02 
  3.012233416795e-02 
  2.993923196421e-02 
  2.987519086759e-02 
  2.966934806264e-02 
  2.927409383696e-02 
  2.943434220422e-02 
  2.919943784369e-02 
  2.877817695642e-02 
  2.893387952311e-02 
  2.852902497582e-02 
  2.846947818822e-02 
  2.499202415917e-02 
  2.462367335305e-02 
  2.468192634791e-02 
  2.504937065742e-02 
  2.561579636668e-02 
  2.631555404614e-02 
  2.613146559720e-02 
  2.579882708511e-02 
  2.583026441384e-02 
  2.612202393942e-02 
  2.660295970367e-02 
  2.697594984257e-02 
  2.670720707451e-02 
  2.673329092398e-02 
  2.698718952538e-02 
  2.761715268497e-02 
  2.740833832419e-02 
  2.744702972312e-02 
  2.810175452405e-02 
  2.794890196218e-02 
  2.846848859737e-02 
  3.087561504369e-02 
  3.042638281354e-02 
  2.993904708941e-02 
  2.943396419021e-02 
  2.893357717643e-02 
  2.846768238082e-02 
  3.026110119488e-02 
  2.991354081688e-02 
  2.955284115844e-02 
  2.919552674986e-02 
  2.886144492239e-02 
  2.976214161607e-02 
  2.951579922724e-02 
  2.927702438015e-02 
  2.905775662092e-02 
  2.934742986010e-02 
  2.920228969721e-02 
  2.907870942860e-02 
  2.899537631374e-02 
  2.895036141982e-02 
  2.868030502221e-02 
  1.980581376774e-02 
  1.850559903792e-02 
  1.703348324711e-02 
  1.533557080761e-02 
  1.335452953354e-02 
  1.102934061533e-02 
  1.893104564099e-02 
  1.751645513389e-02 
  1.589703226860e-02 
  1.403305128000e-02 
  1.188804880719e-02 
  1.827277921383e-02 
  1.677554023775e-02 
  1.507007812058e-02 
  1.311981624342e-02 
  1.785378113830e-02 
  1.632783858920e-02 
  1.460525678644e-02 
  1.769147838340e-02 
  1.619347447437e-02 
  1.777815812720e-02 
  3.302231492051e-02 
  3.214105448950e-02 
  3.134595696829e-02 
  3.060660985139e-02 
  2.989455818365e-02 
  2.919209717079e-02 
  3.234944646209e-02 
  3.156199753050e-02 
  3.081946022582e-02 
  3.009993017549e-02 
  2.938704231318e-02 
  3.172548407323e-02 
  3.100312932353e-02 
  3.029893997399e-02 
  2.960008686177e-02 
  3.116609186677e-02 
  3.049536781701e-02 
  2.982108127359e-02 
  3.068692827613e-02 
  3.004494311580e-02 
  3.024032224255e-02 
  3.071824143039e-02 
  2.727121907324e-02 
  2.727307664490e-02 
  2.714441124715e-02 
  2.755327126339e-02 
  2.855754136527e-02 
  2.751989845592e-02 
  2.705179789257e-02 
  2.714788145198e-02 
  2.713527019552e-02 
  2.776519869309e-02 
  2.704540890644e-02 
  2.722897772397e-02 
  2.717024178680e-02 
  2.751551728655e-02 
  2.705567197102e-02 
  2.700654287261e-02 
  2.772901831853e-02 
  2.744027688398e-02 
  2.813115063496e-02 
  2.805553867489e-02 
  3.457383773527e-02 
  3.401601182634e-02 
  3.354716328143e-02 
  3.316632488076e-02 
  3.287036846386e-02 
  3.260332423878e-02 
  3.484439673266e-02 
  3.424099024935e-02 
  3.374047374548e-02 
  3.334241360901e-02 
  3.303270129115e-02 
  3.504980218670e-02 
  3.440820047043e-02 
  3.388648945445e-02 
  3.347495143906e-02 
  3.518225613388e-02 
  3.451589363772e-02 
  3.398277287994e-02 
  3.524246057202e-02 
  3.456482936666e-02 
  3.522871060999e-02 
  3.457336859732e-02 
  3.438988476666e-02 
  3.413994170728e-02 
  3.382451808664e-02 
  3.344802298331e-02 
  3.302136148533e-02 
  3.349630362858e-02 
  3.327662117473e-02 
  3.300959571616e-02 
  3.269920527121e-02 
  3.234950418843e-02 
  3.256894576773e-02 
  3.231828622193e-02 
  3.203606838153e-02 
  3.172528864377e-02 
  3.174846886572e-02 
  3.147002908382e-02 
  3.116616271871e-02 
  3.099424390570e-02 
  3.068669127786e-02 
  3.024112022043e-02 
  3.087438179713e-02 
  3.158754616365e-02 
  3.248504535852e-02 
  3.365006017218e-02 
  3.517983687666e-02 
  3.719758162384e-02 
  3.112233252279e-02 
  3.190952396073e-02 
  3.294827011122e-02 
  3.434842692691e-02 
  3.623400254250e-02 
  3.132050593768e-02 
  3.221162501683e-02 
  3.344202098527e-02 
  3.515395519052e-02 
  3.145970392508e-02 
  3.248829120804e-02 
  3.397323237486e-02 
  3.151568111244e-02 
  3.272025630575e-02 
  3.142933179219e-02 
  3.719764475387e-02 
  3.517991597387e-02 
  3.365011948354e-02 
  3.248511365212e-02 
  3.158760802604e-02 
  3.087436924014e-02 
  3.612369728523e-02 
  3.450022881671e-02 
  3.322003992809e-02 
  3.220181122934e-02 
  3.137235916061e-02 
  3.519874185439e-02 
  3.386105235247e-02 
  3.276454059601e-02 
  3.185260806661e-02 
  3.438895804271e-02 
  3.325884672503e-02 
  3.229519383959e-02 
  3.367035188894e-02 
  3.268929641190e-02 
  3.302068877034e-02 
  4.100124225048e-02 
  4.054251390423e-02 
  3.992346033926e-02 
  3.914901633685e-02 
  3.823069648075e-02 
  3.719956471007e-02 
  3.868017611645e-02 
  3.819517500875e-02 
  3.759537968919e-02 
  3.689736716657e-02 
  3.612352522475e-02 
  3.680855829097e-02 
  3.633815663068e-02 
  3.579717874707e-02 
  3.519904968913e-02 
  3.529841725136e-02 
  3.486538795433e-02 
  3.438873065079e-02 
  3.406429982758e-02 
  3.367035811408e-02 
  3.301955427800e-02 
  3.852228588958e-02 
  3.739709209440e-02 
  3.569362766153e-02 