# vtk DataFile Version 2
NuDG++ 2D simulation
ASCII
DATASET UNSTRUCTURED_GRID

POINTS 7854 double
 -1.656250060000e-01  -2.000000030000e-01  0.0
 -1.725000054000e-01  -1.908888817000e-01  0.0
 -1.793750048000e-01  -1.817777604000e-01  0.0
 -1.862500042000e-01  -1.726666391000e-01  0.0
 -1.931250036000e-01  -1.635555178000e-01  0.0
 -2.000000030000e-01  -1.544443965000e-01  0.0
 -1.725000054000e-01  -2.000000030000e-01  0.0
 -1.793750048000e-01  -1.908888817000e-01  0.0
 -1.862500042000e-01  -1.817777604000e-01  0.0
 -1.931250036000e-01  -1.726666391000e-01  0.0
 -2.000000030000e-01  -1.635555178000e-01  0.0
 -1.793750048000e-01  -2.000000030000e-01  0.0
 -1.862500042000e-01  -1.908888817000e-01  0.0
 -1.931250036000e-01  -1.817777604000e-01  0.0
 -2.000000030000e-01  -1.726666391000e-01  0.0
 -1.862500042000e-01  -2.000000030000e-01  0.0
 -1.931250036000e-01  -1.908888817000e-01  0.0
 -2.000000030000e-01  -1.817777604000e-01  0.0
 -1.931250036000e-01  -2.000000030000e-01  0.0
 -2.000000030000e-01  -1.908888817000e-01  0.0
 -2.000000030000e-01  -2.000000030000e-01  0.0
 -6.428571790000e-02  -1.700000018000e-01  0.0
 -7.080357372400e-02  -1.760000020400e-01  0.0
 -7.732142954800e-02  -1.820000022800e-01  0.0
 -8.383928537200e-02  -1.880000025200e-01  0.0
 -9.035714119600e-02  -1.940000027600e-01  0.0
 -9.687499702000e-02  -2.000000030000e-01  0.0
 -6.392857432000e-02  -1.760000020400e-01  0.0
 -7.044643014400e-02  -1.820000022800e-01  0.0
 -7.696428596800e-02  -1.880000025200e-01  0.0
 -8.348214179200e-02  -1.940000027600e-01  0.0
 -8.999999761600e-02  -2.000000030000e-01  0.0
 -6.357143074000e-02  -1.820000022800e-01  0.0
 -7.008928656400e-02  -1.880000025200e-01  0.0
 -7.660714238800e-02  -1.940000027600e-01  0.0
 -8.312499821200e-02  -2.000000030000e-01  0.0
 -6.321428716000e-02  -1.880000025200e-01  0.0
 -6.973214298400e-02  -1.940000027600e-01  0.0
 -7.624999880800e-02  -2.000000030000e-01  0.0
 -6.285714358000e-02  -1.940000027600e-01  0.0
 -6.937499940400e-02  -2.000000030000e-01  0.0
 -6.250000000000e-02  -2.000000030000e-01  0.0
 -2.000000030000e-01  -1.544443965000e-01  0.0
 -1.900000036000e-01  -1.478412374800e-01  0.0
 -1.800000042000e-01  -1.412380784600e-01  0.0
 -1.700000048000e-01  -1.346349194400e-01  0.0
 -1.600000054000e-01  -1.280317604200e-01  0.0
 -1.500000060000e-01  -1.214286014000e-01  0.0
 -2.000000030000e-01  -1.453332975600e-01  0.0
 -1.900000036000e-01  -1.387301385400e-01  0.0
 -1.800000042000e-01  -1.321269795200e-01  0.0
 -1.700000048000e-01  -1.255238205000e-01  0.0
 -1.600000054000e-01  -1.189206614800e-01  0.0
 -2.000000030000e-01  -1.362221986200e-01  0.0
 -1.900000036000e-01  -1.296190396000e-01  0.0
 -1.800000042000e-01  -1.230158805800e-01  0.0
 -1.700000048000e-01  -1.164127215600e-01  0.0
 -2.000000030000e-01  -1.271110996800e-01  0.0
 -1.900000036000e-01  -1.205079406600e-01  0.0
 -1.800000042000e-01  -1.139047816400e-01  0.0
 -2.000000030000e-01  -1.180000007400e-01  0.0
 -1.900000036000e-01  -1.113968417200e-01  0.0
 -2.000000030000e-01  -1.088889018000e-01  0.0
 -1.500000060000e-01  -1.214286014000e-01  0.0
 -1.600000054000e-01  -1.280317604200e-01  0.0
 -1.700000048000e-01  -1.346349194400e-01  0.0
 -1.800000042000e-01  -1.412380784600e-01  0.0
 -1.900000036000e-01  -1.478412374800e-01  0.0
 -2.000000030000e-01  -1.544443965000e-01  0.0
 -1.500000060000e-01  -1.311428814800e-01  0.0
 -1.600000054000e-01  -1.377460405000e-01  0.0
 -1.700000048000e-01  -1.443491995200e-01  0.0
 -1.800000042000e-01  -1.509523585400e-01  0.0
 -1.900000036000e-01  -1.575555175600e-01  0.0
 -1.500000060000e-01  -1.408571615600e-01  0.0
 -1.600000054000e-01  -1.474603205800e-01  0.0
 -1.700000048000e-01  -1.540634796000e-01  0.0
 -1.800000042000e-01  -1.606666386200e-01  0.0
 -1.500000060000e-01  -1.505714416400e-01  0.0
 -1.600000054000e-01  -1.571746006600e-01  0.0
 -1.700000048000e-01  -1.637777596800e-01  0.0
 -1.500000060000e-01  -1.602857217200e-01  0.0
 -1.600000054000e-01  -1.668888807400e-01  0.0
 -1.500000060000e-01  -1.700000018000e-01  0.0
 -1.500000060000e-01  -7.285714149000e-02  0.0
 -1.600000054000e-01  -8.006349355200e-02  0.0
 -1.700000048000e-01  -8.726984561400e-02  0.0
 -1.800000042000e-01  -9.447619767600e-02  0.0
 -1.900000036000e-01  -1.016825497380e-01  0.0
 -2.000000030000e-01  -1.088889018000e-01  0.0
 -1.500000060000e-01  -8.257143347200e-02  0.0
 -1.600000054000e-01  -8.977778553400e-02  0.0
 -1.700000048000e-01  -9.698413759600e-02  0.0
 -1.800000042000e-01  -1.041904896580e-01  0.0
 -1.900000036000e-01  -1.113968417200e-01  0.0
 -1.500000060000e-01  -9.228572545400e-02  0.0
 -1.600000054000e-01  -9.949207751600e-02  0.0
 -1.700000048000e-01  -1.066984295780e-01  0.0
 -1.800000042000e-01  -1.139047816400e-01  0.0
 -1.500000060000e-01  -1.020000174360e-01  0.0
 -1.600000054000e-01  -1.092063694980e-01  0.0
 -1.700000048000e-01  -1.164127215600e-01  0.0
 -1.500000060000e-01  -1.117143094180e-01  0.0
 -1.600000054000e-01  -1.189206614800e-01  0.0
 -1.500000060000e-01  -1.214286014000e-01  0.0
  1.832975030000e+00  -4.625000060000e-02  0.0
  1.841380024000e+00  -7.700000108000e-02  0.0
  1.849785018000e+00  -1.077500015600e-01  0.0
  1.858190012000e+00  -1.385000020400e-01  0.0
  1.866595006000e+00  -1.692500025200e-01  0.0
  1.875000000000e+00  -2.000000030000e-01  0.0
  1.866380024000e+00  -5.649999976400e-02  0.0
  1.874785018000e+00  -8.725000024400e-02  0.0
  1.883190012000e+00  -1.180000007240e-01  0.0
  1.891595006000e+00  -1.487500012040e-01  0.0
  1.900000000000e+00  -1.795000016840e-01  0.0
  1.899785018000e+00  -6.674999892800e-02  0.0
  1.908190012000e+00  -9.749999940800e-02  0.0
  1.916595006000e+00  -1.282499998880e-01  0.0
  1.925000000000e+00  -1.590000003680e-01  0.0
  1.933190012000e+00  -7.699999809200e-02  0.0
  1.941595006000e+00  -1.077499985720e-01  0.0
  1.950000000000e+00  -1.384999990520e-01  0.0
  1.966595006000e+00  -8.724999725600e-02  0.0
  1.975000000000e+00  -1.179999977360e-01  0.0
  2.000000000000e+00  -9.749999642000e-02  0.0
 -1.500000060000e-01  -1.700000018000e-01  0.0
 -1.444000050800e-01  -1.630000025200e-01  0.0
 -1.388000041600e-01  -1.560000032400e-01  0.0
 -1.332000032400e-01  -1.490000039600e-01  0.0
 -1.276000023200e-01  -1.420000046800e-01  0.0
 -1.220000014000e-01  -1.350000054000e-01  0.0
 -1.500000060000e-01  -1.602857217200e-01  0.0
 -1.444000050800e-01  -1.532857224400e-01  0.0
 -1.388000041600e-01  -1.462857231600e-01  0.0
 -1.332000032400e-01  -1.392857238800e-01  0.0
 -1.276000023200e-01  -1.322857246000e-01  0.0
 -1.500000060000e-01  -1.505714416400e-01  0.0
 -1.444000050800e-01  -1.435714423600e-01  0.0
 -1.388000041600e-01  -1.365714430800e-01  0.0
 -1.332000032400e-01  -1.295714438000e-01  0.0
 -1.500000060000e-01  -1.408571615600e-01  0.0
 -1.444000050800e-01  -1.338571622800e-01  0.0
 -1.388000041600e-01  -1.268571630000e-01  0.0
 -1.500000060000e-01  -1.311428814800e-01  0.0
 -1.444000050800e-01  -1.241428822000e-01  0.0
 -1.500000060000e-01  -1.214286014000e-01  0.0
  2.849999964000e-01  -2.333333530000e-02  0.0
  2.844999968800e-01  -4.666666836000e-02  0.0
  2.839999973600e-01  -7.000000142000e-02  0.0
  2.834999978400e-01  -9.333333448000e-02  0.0
  2.829999983200e-01  -1.166666675400e-01  0.0
  2.824999988000e-01  -1.400000006000e-01  0.0
  2.979999959200e-01  -3.266666830000e-02  0.0
  2.974999964000e-01  -5.600000136000e-02  0.0
  2.969999968800e-01  -7.933333442000e-02  0.0
  2.964999973600e-01  -1.026666674800e-01  0.0
  2.959999978400e-01  -1.260000005400e-01  0.0
  3.109999954400e-01  -4.200000130000e-02  0.0
  3.104999959200e-01  -6.533333436000e-02  0.0
  3.099999964000e-01  -8.866666742000e-02  0.0
  3.094999968800e-01  -1.120000004800e-01  0.0
  3.239999949600e-01  -5.133333430000e-02  0.0
  3.234999954400e-01  -7.466666736000e-02  0.0
  3.229999959200e-01  -9.800000042000e-02  0.0
  3.369999944800e-01  -6.066666730000e-02  0.0
  3.364999949600e-01  -8.400000036000e-02  0.0
  3.499999940000e-01  -7.000000030000e-02  0.0
 -1.071429029000e-01  -1.700000018000e-01  0.0
 -9.857146590000e-02  -1.700000018000e-01  0.0
 -9.000002890000e-02  -1.700000018000e-01  0.0
 -8.142859190000e-02  -1.700000018000e-01  0.0
 -7.285715490000e-02  -1.700000018000e-01  0.0
 -6.428571790000e-02  -1.700000018000e-01  0.0
 -1.037143230360e-01  -1.630000025200e-01  0.0
 -9.514288603600e-02  -1.630000025200e-01  0.0
 -8.657144903600e-02  -1.630000025200e-01  0.0
 -7.800001203600e-02  -1.630000025200e-01  0.0
 -6.942857503600e-02  -1.630000025200e-01  0.0
 -1.002857431720e-01  -1.560000032400e-01  0.0
 -9.171430617200e-02  -1.560000032400e-01  0.0
 -8.314286917200e-02  -1.560000032400e-01  0.0
 -7.457143217200e-02  -1.560000032400e-01  0.0
 -9.685716330800e-02  -1.490000039600e-01  0.0
 -8.828572630800e-02  -1.490000039600e-01  0.0
 -7.971428930800e-02  -1.490000039600e-01  0.0
 -9.342858344400e-02  -1.420000046800e-01  0.0
 -8.485714644400e-02  -1.420000046800e-01  0.0
 -9.000000358000e-02  -1.350000054000e-01  0.0
 -1.312499940000e-01  -2.000000030000e-01  0.0
 -1.264285757800e-01  -1.940000027600e-01  0.0
 -1.216071575600e-01  -1.880000025200e-01  0.0
 -1.167857393400e-01  -1.820000022800e-01  0.0
 -1.119643211200e-01  -1.760000020400e-01  0.0
 -1.071429029000e-01  -1.700000018000e-01  0.0
 -1.349999964000e-01  -1.940000027600e-01  0.0
 -1.301785781800e-01  -1.880000025200e-01  0.0
 -1.253571599600e-01  -1.820000022800e-01  0.0
 -1.205357417400e-01  -1.760000020400e-01  0.0
 -1.157143235200e-01  -1.700000018000e-01  0.0
 -1.387499988000e-01  -1.880000025200e-01  0.0
 -1.339285805800e-01  -1.820000022800e-01  0.0
 -1.291071623600e-01  -1.760000020400e-01  0.0
 -1.242857441400e-01  -1.700000018000e-01  0.0
 -1.425000012000e-01  -1.820000022800e-01  0.0
 -1.376785829800e-01  -1.760000020400e-01  0.0
 -1.328571647600e-01  -1.700000018000e-01  0.0
 -1.462500036000e-01  -1.760000020400e-01  0.0
 -1.414285853800e-01  -1.700000018000e-01  0.0
 -1.500000060000e-01  -1.700000018000e-01  0.0
[...]
POINT_DATA 7854
SCALARS field1 double 1
LOOKUP_TABLE default
 -4.552629981372e-06 
  1.542055322703e-02 
  1.885653645779e-02 
  1.986410887469e-02 
  2.217664257982e-02 
  2.618009893981e-02 
 -3.114728398601e-06 
  1.271283166937e-02 
  1.553674033601e-02 
  1.751575464120e-02 
  2.146359398808e-02 
  2.149958061219e-06 
  9.727880269697e-03 
  1.264446335470e-02 
  1.649495683112e-02 
  6.811834928111e-06 
  7.029538914012e-03 
  1.126151271892e-02 
 -3.064895055116e-06 
  5.757375027217e-03 
  2.210236052537e-06 
  5.064351642834e-02 
  4.849890143414e-02 
  4.464770458350e-02 
  3.728662686116e-02 
  2.362325892762e-02 
 -5.108187270408e-07 
  4.938005588167e-02 
  4.552301284488e-02 
  3.808378902879e-02 
  2.417095500276e-02 
 -1.925372631466e-07 
  4.634109937010e-02 
  3.882932692748e-02 
  2.468772584997e-02 
 -2.205604765978e-07 
  3.952549081878e-02 
  2.517164083772e-02 
 -2.155549342713e-07 
  2.562109060371e-02 
 -1.097224533905e-07 
 -3.290208889548e-07 
  2.618202350536e-02 
  3.013132001861e-02 
  3.432772026512e-02 
  3.796283106867e-02 
  4.089071162252e-02 
  4.325456654395e-02 
  3.063219376025e-02 
  3.411799787913e-02 
  3.762186408242e-02 
  4.062966180295e-02 
  4.303342172975e-02 
  3.482089580360e-02 
  3.788428920291e-02 
  4.077521426683e-02 
  4.318305203818e-02 
  3.874715147896e-02 
  4.142843402391e-02 
  4.375005903352e-02 
  4.241149734016e-02 
  4.473260986637e-02 
  4.581647326912e-02 
  4.325341959546e-02 
  4.089087606912e-02 
  3.796169106069e-02 
  3.432830288083e-02 
  3.013073859358e-02 
  2.618417631860e-02 
  4.139567943068e-02 
  3.855053593633e-02 
  3.503012456769e-02 
  3.068837834400e-02 
  2.571885841283e-02 
  3.950377144448e-02 
  3.621121342788e-02 
  3.210527585544e-02 
  2.700710343907e-02 
  3.768042894937e-02 
  3.396620476124e-02 
  2.926172212218e-02 
  3.599260693594e-02 
  3.182104283599e-02 
  3.428334175715e-02 
  5.054165476724e-02 
  5.061517001634e-02 
  5.026103128804e-02 
  4.941499357938e-02 
  4.797382567369e-02 
  4.581769535421e-02 
  4.945379639408e-02 
  4.900212030714e-02 
  4.810585760229e-02 
  4.669909491476e-02 
  4.473221987510e-02 
  4.814484713542e-02 
  4.719417443653e-02 
  4.574576203003e-02 
  4.374945803480e-02 
  4.665691079724e-02 
  4.520201002813e-02 
  4.318299111776e-02 
  4.501466125703e-02 
  4.303404367453e-02 
  4.325252484859e-02 
  5.189282184573e-02 
  4.219093646490e-02 
  4.379041967997e-02 
  4.471341621078e-02 
  4.801367250810e-02 
  4.450920886388e-04 
  4.580548408824e-02 
  4.580560788355e-02 
  4.483003175776e-02 
  4.520640158563e-02 
  4.209730226577e-02 
  4.564953814082e-02 
  4.600699012851e-02 
  4.464258133601e-02 
  4.560345395600e-02 
  4.560631354367e-02 
  4.524804196754e-02 
  4.392765390481e-02 
  4.604858481626e-02 
  4.379291789096e-02 
  4.761103489371e-02 
  3.428369906640e-02 
  3.698318619154e-02 
  3.925353191677e-02 
  4.124160794062e-02 
  4.301117313262e-02 
  4.456864936671e-02 
  3.599137769420e-02 
  3.842914907367e-02 
  4.057083430145e-02 
  4.245378300186e-02 
  4.410376863037e-02 
  3.768019296360e-02 
  3.998451839801e-02 
  4.198838323113e-02 
  4.371786322833e-02 
  3.950354172811e-02 
  4.162619445242e-02 
  4.343941851717e-02 
  4.139420498122e-02 
  4.327449786940e-02 
  4.325320173563e-02 
  4.654381626276e-02 
  4.517794684708e-02 
  4.579525703000e-02 
  4.591444475896e-02 
  4.595214555167e-02 
  4.756579028787e-02 
  4.555961381819e-02 
  4.558328895420e-02 
  4.586814120009e-02 
  4.580775658709e-02 
  4.600118132461e-02 
  4.565486400574e-02 
  4.581278356545e-02 
  4.587952985410e-02 
  4.576630780189e-02 
  4.609104368605e-02 
  4.587484232012e-02 
  4.584385731249e-02 
  4.606197886605e-02 
  4.596882364700e-02 
  4.556870745798e-02 
  4.406712333412e-02 
  4.557316291104e-02 
  4.697008213419e-02 
  4.828005684532e-02 
  4.950285045964e-02 
  5.064588779457e-02 
  4.536265743531e-02 
  4.679213272928e-02 
  4.814265834232e-02 
  4.941608243959e-02 
  5.061333549621e-02 
  4.637539592089e-02 
  4.773544655117e-02 
  4.903749726345e-02 
  5.028356933238e-02 
  4.731255441301e-02 
  4.861306508093e-02 
  4.988168881245e-02 
  4.821543764218e-02 
  4.947593427855e-02 
  4.909629838059e-02 
  6.642111149425e-07 
  2.003749735015e-02 
  3.185288469598e-02 
  3.839935809620e-02 
  4.197485718598e-02 
  4.406757083154e-02 
  1.893588272855e-02 
  3.027036727862e-02 
  3.667818509883e-02 
  4.027295012041e-02 
  4.246644116602e-02 
  2.848827109767e-02 
  3.476412643058e-02 
  3.840591024799e-02 
  4.071361526580e-02 
  3.260779359492e-02 
  3.632940906520e-02 
  3.879189084824e-02 
  3.399230929187e-02 
  3.666287153756e-02 
  3.428353424928e-02 
  4.457184621098e-02 
  4.547104071668e-02 
  4.636551717895e-02 
  4.726719736957e-02 
  4.817347833419e-02 
  4.909567528036e-02 
  4.543872923598e-02 
  4.623266119012e-02 
  4.704695004691e-02 
  4.788570110509e-02 
  4.874995116894e-02 
  4.622750973371e-02 
  4.692886908372e-02 
  4.766777654484e-02 
  4.845056298690e-02 
  4.692785168493e-02 
  4.753936020011e-02 
  4.820874825688e-02 
  4.752021093898e-02 
  4.804393731502e-02 
  4.797339546486e-02 
  4.909543644420e-02 
  4.817364457841e-02 
  4.726716644581e-02 
  4.636561129849e-02 
  4.547106352529e-02 
  4.457215242472e-02 
  4.821593185456e-02 
  4.726762818136e-02 
  4.631005697065e-02 
  4.534116047791e-02 
  4.435655266616e-02 
  4.731243931190e-02 
  4.631442341095e-02 
  4.529157119782e-02 
  4.424011902270e-02 
  4.637569176835e-02 
  4.531790341055e-02 
  4.421867509943e-02 
  4.536281447889e-02 
  4.423688075156e-02 
  4.406798768484e-02 
  5.189663160876e-02 
  5.080441172708e-02 
  4.991099143824e-02 
  4.916728951025e-02 
  4.853492826529e-02 
  4.797350065573e-02 
  5.164773407120e-02 
  5.056545255136e-02 
  4.962774646216e-02 
  4.879705483345e-02 
  4.804386566394e-02 
  5.118565589960e-02 
  5.010721618940e-02 
  4.912348150317e-02 
  4.820871585406e-02 
  5.057597946163e-02 
  4.948676525314e-02 
  4.845051740135e-02 
  4.986550567099e-02 
  4.874983024540e-02 
  4.909610040743e-02 
  4.457080017177e-02 
  4.543877445448e-02 
  4.622744705064e-02 
  4.692780436179e-02 
  4.752037643274e-02 
  4.797308021505e-02 
  4.410334256550e-02 
  4.505063294650e-02 
  4.591447884780e-02 
  4.667595715480e-02 
  4.731575596007e-02 
  4.371816032344e-02 
  4.476152236217e-02 
  4.570735273830e-02 
  4.653934424127e-02 
  4.343871441171e-02 
  4.458388628418e-02 
  4.562034007644e-02 
  4.327453401421e-02 
  4.453173481151e-02 
  4.325210391766e-02 
  5.189618031442e-02 
  5.164772865156e-02 
  5.118561480553e-02 
  5.057602548926e-02 
  4.986534018260e-02 
  4.909703450377e-02 
  5.280807426740e-02 
  5.236375577307e-02 
  5.176914588912e-02 
  5.107775664318e-02 
  5.032517416001e-02 
  5.368469419603e-02 
  5.305434264548e-02 
  5.233688921711e-02 
  5.157423477738e-02 
  5.449403069481e-02 
  5.369696347247e-02 
  5.287417184220e-02 
  5.521702433639e-02 
  5.427578113142e-02 
  5.583454993555e-02 
  4.406792680505e-02 
  4.423726622418e-02 
  4.421894975430e-02 
  4.424016167567e-02 
  4.435657217483e-02 
  4.457086248477e-02 
  4.246669173962e-02 
  4.263815083047e-02 
  4.267096481163e-02 
  4.277795069588e-02 
  4.301088076055e-02 
  4.071375159740e-02 
  4.091491538269e-02 
  4.102147391851e-02 
  4.124174764692e-02 
  3.879208926941e-02 
  3.903925137367e-02 
  3.925295209208e-02 
  3.666303081702e-02 
  3.698288817526e-02 
  3.428355821236e-02 
 -3.436768663377e-08 
 -1.950843320778e-07 
 -1.239982742077e-07 
 -2.360351543593e-07 
 -1.851272272058e-07 
 -8.063884498881e-07 
  2.801612239442e-02 
  2.793651920491e-02 
  2.771413882381e-02 
  2.738004601802e-02 
  2.697112501591e-02 
  4.327802619922e-02 
  4.312093088125e-02 
  4.274505769140e-02 
  4.220606299390e-02 
  5.080862587976e-02 
  5.056591197747e-02 
  5.007979063850e-02 
  5.419026895637e-02 
  5.385118816667e-02 
  5.560531818379e-02 
  5.054078603309e-02 
  4.945244865465e-02 
  4.814454896349e-02 
  4.665740986547e-02 
  4.501492709177e-02 
  4.325217146339e-02 
  4.942105295193e-02 
  4.845377619459e-02 
  4.730400147491e-02 
  4.598826849897e-02 
  4.453162182957e-02 
  4.861309702593e-02 
  4.778205188180e-02 
  4.677637824375e-02 
  4.562048179656e-02 
  4.810926068076e-02 
  4.741016392581e-02 
  4.653952559349e-02 
  4.791001619525e-02 
  4.731576496496e-02 
  4.797276161216e-02 
  5.890509636935e-02 
  5.768614393237e-02 
  5.567459698514e-02 
  5.366041663725e-02 
  5.193347267398e-02 
  5.054285504949e-02 
  5.958130780686e-02 
  5.739911332627e-02 
  5.514513684054e-02 
  5.314365703517e-02 
  5.143933560552e-02 
  5.886816942802e-02 
  5.638989315131e-02 
  5.413533741633e-02 
  5.216090213437e-02 
  5.742060579469e-02 
  5.493545401325e-02 
  5.271559057144e-02 
  5.556858833649e-02 
  5.312491538700e-02 
  5.341771236364e-02 
  5.890573995974e-02 
  5.681034647773e-02 
  5.445471445490e-02 
  5.183815050160e-02 
  4.895869565351e-02 
  4.581642226240e-02 
  5.768612250076e-02 
  5.563282765692e-02 
  5.332738233519e-02 
  5.077583383691e-02 
  4.797359466263e-02 
  5.567552902987e-02 
  5.381571335049e-02 
  5.172191565365e-02 
  4.941435231132e-02 
  5.365961045050e-02 
  5.206420128295e-02 
  5.026226695724e-02 
  5.193295392028e-02 
  5.061536355053e-02 
  5.054329636434e-02 
  5.890549704696e-02 
  5.958051114003e-02 
  5.886771606080e-02 
  5.742086377500e-02 
  5.556905059081e-02 
  5.341711730044e-02 
  6.073902325907e-02 
  6.110650219018e-02 
  6.000944088556e-02 
  5.818723870636e-02 
  5.601921891644e-02 
  6.230938561583e-02 
  6.238695949025e-02 
  6.093715603113e-02 
  5.877869117519e-02 
  6.361724409611e-02 
  6.341747853488e-02 
  6.164458034647e-02 
  6.466457075681e-02 
  6.420235183284e-02 
  6.544912808481e-02 
  5.341877546456e-02 
  5.312400449831e-02 
  5.271540496294e-02 
  5.216167181557e-02 
  5.144042988671e-02 
  5.054033602409e-02 
  5.124353580714e-02 
  5.114456457002e-02 
  5.097296187419e-02 
  5.068042931416e-02 
  5.022566359435e-02 
  4.918085735436e-02 
  4.933332956602e-02 
  4.943927351412e-02 
  4.943381320063e-02 
  4.720820251874e-02 
  4.768519621555e-02 
  4.812741717882e-02 
  4.532723329567e-02 
  4.621513255775e-02 
  4.356346986689e-02 
  4.201307003800e-02 
  4.468478089981e-02 
  4.714504197183e-02 
  4.939917570565e-02 
  5.147998187357e-02 
  5.341892899410e-02 
  4.182350991296e-02 
  4.460981207905e-02 
  4.707038416963e-02 
  4.926764160953e-02 
  5.124338898348e-02 
  4.191171098060e-02 
  4.470182537420e-02 
  4.709668054789e-02 
  4.918076030290e-02 
  4.225269244867e-02 
  4.494907659502e-02 
  4.720836773129e-02 
  4.281600621099e-02 
  4.532727414381e-02 
  4.356350664666e-02 
  5.341919355398e-02 
  5.361841259174e-02 
  5.377519087154e-02 
  5.387377353425e-02 
  5.392021624659e-02 
  5.391632141198e-02 
  5.601896471186e-02 
  5.636622089741e-02 
  5.658223141952e-02 
  5.667394309720e-02 
  5.665279236684e-02 
  5.877990166376e-02 
  5.923105389037e-02 
  5.948933509665e-02 
  5.956476499702e-02 
  6.164370653948e-02 
  6.216191028306e-02 
  6.244451859039e-02 
  6.420278009964e-02 
  6.475612220017e-02 
  6.544694418304e-02 
  5.053882695288e-02 
  4.964311764628e-02 
  4.885443376689e-02 
  4.819769486713e-02 
  4.770515347199e-02 
  4.748040844808e-02 
  5.022602381577e-02 
  4.912469279093e-02 
  4.812535110721e-02 
  4.724058315978e-02 
  4.653649424625e-02 
  4.943346604180e-02 
  4.809488694404e-02 
  4.681551321304e-02 
  4.561928643268e-02 
  4.812718568336e-02 
  4.646308594012e-02 
  4.478108554260e-02 
  4.621508094195e-02 
  4.408043956464e-02 
  4.356375261357e-02 
  4.840483148714e-02 
  4.623056903786e-02 
  4.541706234774e-02 
  4.559351142964e-02 
  4.667628103101e-02 
  4.739411052816e-02 
  4.578291220378e-02 
  4.584822684395e-02 
  4.588237346978e-02 
  4.667954782116e-02 
  4.805612648816e-02 
  4.569316265367e-02 
  4.543024215163e-02 
  4.521960611491e-02 
  4.483822972201e-02 
  4.492933407742e-02 
  4.562082430902e-02 
  4.458263615397e-02 
  3.725528392769e-02 
  4.277293749605e-02 
  2.036460254813e-04 
  4.122418400623e-02 
  4.330428293809e-02 
  4.482242749412e-02 
  4.596866057678e-02 
  4.683187326505e-02 
  4.748483382555e-02 
  4.334890582376e-02 
  4.496369613006e-02 
  4.612188930140e-02 
  4.698152404465e-02 
  4.760765215946e-02 
  4.562910730775e-02 
  4.674166668238e-02 
  4.750857303750e-02 
  4.805917207089e-02 
  4.799217681542e-02 
  4.858154329894e-02 
  4.894086757172e-02 
  5.035679350259e-02 
  5.042285538247e-02 
  5.264584116071e-02 
  4.748013029947e-02 
  4.770518868929e-02 
  4.819760571875e-02 
  4.885465719225e-02 
  4.964308679229e-02 
  5.053931870056e-02 
  4.820030645500e-02 
  4.820605087807e-02 
  4.845344222535e-02 
  4.887189851803e-02 
  4.942086472511e-02 
  4.856611256948e-02 
  4.838168560536e-02 
  4.841887998956e-02 
  4.861255411865e-02 
  4.862142847015e-02 
  4.827378216827e-02 
  4.810958792880e-02 
  4.841590618816e-02 
  4.790984818793e-02 
  4.797337890320e-02 
  1.687397665851e-02 
  2.079185553072e-02 
  2.421411365068e-02 
  2.718815155497e-02 
  2.978377535314e-02 
  3.207475481169e-02 
  1.840345446685e-02 
  2.219846217021e-02 
  2.548190532133e-02 
  2.831372871562e-02 
  3.075912165930e-02 
  2.035174503420e-02 
  2.403163891876e-02 
  2.711827124809e-02 
  2.974621153432e-02 
  2.276515922112e-02 
  2.625603251173e-02 
  2.909013227835e-02 
  2.563842688888e-02 
  2.883670043411e-02 
  2.889668271392e-02 
  3.207173233090e-02 
  3.520921008431e-02 
  3.782147107038e-02 
  4.002224516486e-02 
  4.191115404405e-02 
  4.356491408307e-02 
  3.329177025077e-02 
  3.619274845819e-02 
  3.858841572385e-02 
  4.061041547115e-02 
  4.234209574191e-02 
  3.489707791542e-02 
  3.745172459974e-02 
  3.956624976523e-02 
  4.136080038430e-02 
  3.681512119532e-02 
  3.894716010884e-02 
  4.072372884262e-02 
  3.895311166243e-02 
  4.061914518187e-02 
  4.122577992110e-02 
  4.122233815983e-02 
  3.982093224297e-02 
  3.803481887792e-02 
  3.577497024140e-02 
  3.282070362039e-02 
  2.889744178637e-02 
  3.895228995207e-02 
  3.716142080931e-02 
  3.497371524201e-02 
  3.225735439954e-02 
  2.883672510816e-02 
  3.681507073697e-02 
  3.470121040137e-02 
  3.216182324726e-02 
  2.908998840236e-02 
  3.489678515799e-02 
  3.253844511666e-02 
  2.974593951935e-02 
  3.329107102457e-02 
  3.075931357693e-02 
  3.207434300055e-02 
  3.207061989565e-02 
  3.340283964923e-02 
  3.531085892343e-02 
  3.749408283093e-02 
  3.976250081286e-02 
  4.201226199917e-02 
  3.520952346127e-02 
  3.634174865210e-02 
  3.795499900463e-02 
  3.983331781390e-02 
  4.182324159539e-02 
  3.782152900660e-02 
  3.882417067391e-02 
  4.024454669114e-02 
  4.191124859511e-02 
  4.002204956830e-02 
  4.095722514981e-02 
  4.225247189309e-02 
  4.191130929488e-02 
  4.281607208294e-02 
  4.356367066949e-02 
  5.189663485974e-02 
  5.231858558018e-02 
  5.264972829837e-02 
  5.287089568564e-02 
  5.292432499331e-02 
  5.264672009759e-02 
  5.107320330133e-02 
  5.123116989456e-02 
  5.121976238852e-02 
  5.098256126648e-02 
  5.042271035779e-02 
  5.017907452775e-02 
  5.004772627788e-02 
  4.966392213291e-02 
  4.894110759193e-02 
  4.925366915498e-02 
  4.882168449544e-02 
  4.805897538292e-02 
  4.833790746335e-02 
  4.760775904439e-02 
  4.748417703005e-02 
  4.122709753132e-02 
  4.061880628566e-02 
  4.072404100685e-02 
  4.136068423873e-02 
  4.234221959204e-02 
  4.356449550061e-02 
  4.330385755651e-02 
  4.271709194216e-02 
  4.275849430039e-02 
  4.325492778769e-02 
  4.408116407281e-02 
  4.482281235383e-02 
  4.433144029981e-02 
  4.435742120865e-02 
  4.478183056125e-02 
  4.596849960862e-02 
  4.557680277609e-02 
  4.562016498366e-02 
  4.683213253303e-02 
  4.653686955261e-02 
  4.748269078765e-02 
  5.189716321736e-02 
  5.107291031520e-02 
  5.017876319674e-02 
  4.925307230819e-02 
  4.833752461846e-02 
  4.748161730959e-02 
  5.080437107262e-02 
  5.015620489265e-02 
  4.948626567729e-02 
  4.882269251349e-02 
  4.820011682977e-02 
  4.991114390180e-02 
  4.944226798704e-02 
  4.898623343933e-02 
  4.856625263831e-02 
  4.916719124404e-02 
  4.887536601286e-02 
  4.862138632089e-02 
  4.853506494212e-02 
  4.841631283359e-02 
  4.797303648155e-02 
  3.207289923711e-02 
  2.978429433666e-02 
  2.718792405814e-02 
  2.421376785741e-02 
  2.079188808188e-02 
  1.687504462632e-02 
  3.054255413644e-02 
  2.805858493797e-02 
  2.523012436026e-02 
  2.201148139583e-02 
  1.837185231807e-02 
  2.938735329376e-02 
  2.677045708343e-02 
  2.381213192502e-02 
  2.047593508228e-02 
  2.865214728275e-02 
  2.599323841483e-02 
  2.301661253399e-02 
  2.836697645878e-02 
  2.575947090800e-02 
  2.852209903643e-02 
  5.583566627030e-02 
  5.427582127360e-02 
  5.287452584451e-02 
  5.157412344937e-02 
  5.032537836525e-02 
  4.909650244388e-02 
  5.468270774308e-02 
  5.329484355814e-02 
  5.198661657153e-02 
  5.072374925801e-02 
  4.947633266669e-02 
  5.361130383896e-02 
  5.233959628631e-02 
  5.110488891012e-02 
  4.988164444495e-02 
  5.265402434250e-02 
  5.147679840431e-02 
  5.028408472825e-02 
  5.180990751813e-02 
  5.061337434925e-02 
  5.064963851429e-02 
  5.197339097425e-02 
  4.568335424520e-02 
  4.562418140758e-02 
  4.559274045279e-02 
  4.601160274189e-02 
  4.775338027910e-02 
  4.688149827351e-02 
  4.567698850700e-02 
  4.579164546859e-02 
  4.584970308966e-02 
  4.601296841281e-02 
  4.568596950107e-02 
  4.597500750784e-02 
  4.586138000297e-02 
  4.620945314543e-02 
  4.533173386607e-02 
  4.557198689804e-02 
  4.830652843574e-02 
  4.630106220893e-02 
  4.837206223376e-02 
  4.793111422380e-02 
  5.866829803655e-02 
  5.770249015881e-02 
  5.689188607712e-02 
  5.622810174174e-02 
  5.565496422150e-02 
  5.479449627372e-02 
  5.915701225374e-02 
  5.811076476940e-02 
  5.724129246749e-02 
  5.654261425223e-02 
  5.592764124290e-02 
  5.953075630307e-02 
  5.841479660416e-02 
  5.750491816443e-02 
  5.677917468232e-02 
  5.977529275040e-02 
  5.861243232389e-02 
  5.767962067636e-02 
  5.988955714195e-02 
  5.870299428989e-02 
  5.987378037487e-02 
  5.866764156076e-02 
  5.832735424946e-02 
  5.786813970479e-02 
  5.729172454349e-02 
  5.660680301845e-02 
  5.583463680048e-02 
  5.677180438701e-02 
  5.637045709958e-02 
  5.588382352797e-02 
  5.531938660231e-02 
  5.468276095556e-02 
  5.514514033014e-02 
  5.468805171083e-02 
  5.417493038753e-02 
  5.361109675241e-02 
  5.370560011188e-02 
  5.320402909824e-02 
  5.265406255078e-02 
  5.232586012946e-02 
  5.180960922898e-02 
  5.065063990483e-02 
  5.189616688163e-02 
  5.316024349965e-02 
  5.475080092607e-02 
  5.681018701013e-02 
  5.949482613516e-02 
  6.294386423355e-02 
  5.231832903101e-02 
  5.371097518725e-02 
  5.554579523200e-02 
  5.799809296091e-02 
  6.120445237369e-02 
  5.264934429357e-02 
  5.422106483322e-02 
  5.637153000123e-02 
  5.926104639494e-02 
  5.287065717852e-02 
  5.466364302440e-02 
  5.714885011908e-02 
  5.292439553182e-02 
  5.492248407288e-02 
  5.264525343544e-02 
  6.294416282308e-02 
  5.949487954856e-02 
  5.681029853390e-02 
  5.475085542655e-02 
  5.316032449819e-02 
  5.189602557626e-02 
  6.120843497549e-02 
  5.834726356596e-02 
  5.607986341549e-02 
  5.427595696085e-02 
  5.280763818533e-02 
  5.961581989329e-02 
  5.724385772417e-02 
  5.530011382932e-02 
  5.368429860830e-02 
  5.820774724004e-02 
  5.620224864670e-02 
  5.449339050319e-02 
  5.695652721025e-02 
  5.521627644929e-02 
  5.583300230616e-02 
  6.980729099590e-02 
  6.895734781282e-02 
  6.782461808794e-02 
  6.642294677658e-02 
  6.477911548182e-02 
  6.294659127652e-02 
  6.582436584152e-02 
  6.494092786708e-02 
  6.385623990447e-02 
  6.259954554354e-02 
  6.120818791451e-02 
  6.252550756791e-02 
  6.167232756311e-02 
  6.069483786506e-02 
  5.961614863450e-02 
  5.985289196140e-02 
  5.906853356360e-02 
  5.820744462310e-02 
  5.766898389098e-02 
  5.695644673396e-02 
  5.583169270358e-02 
  6.049020406431e-02 
  6.030336571479e-02 
  5.866045860494e-02 