# vtk DataFile Version 2
NuDG++ 2D simulation
ASCII
DATASET UNSTRUCTURED_GRID

POINTS 13286 double
 -1.000000000000e+00  -7.500000000000e-01  0.0
 -1.000000000000e+00  -7.708333333333e-01  0.0
 -1.000000000000e+00  -7.916666666667e-01  0.0
 -1.000000000000e+00  -8.125000000000e-01  0.0
 -1.000000000000e+00  -8.333333333333e-01  0.0
 -1.000000000000e+00  -8.541666666667e-01  0.0
 -1.000000000000e+00  -8.750000000000e-01  0.0
 -1.000000000000e+00  -8.958333333333e-01  0.0
 -1.000000000000e+00  -9.166666666667e-01  0.0
 -1.000000000000e+00  -9.375000000000e-01  0.0
 -1.000000000000e+00  -9.583333333333e-01  0.0
 -1.000000000000e+00  -9.791666666667e-01  0.0
 -1.000000000000e+00  -1.000000000000e+00  0.0
 -9.854429568065e-01  -7.562054016279e-01  0.0
 -9.854429568065e-01  -7.770387349612e-01  0.0
 -9.854429568065e-01  -7.978720682946e-01  0.0
 -9.854429568065e-01  -8.187054016279e-01  0.0
 -9.854429568065e-01  -8.395387349612e-01  0.0
 -9.854429568065e-01  -8.603720682946e-01  0.0
 -9.854429568065e-01  -8.812054016279e-01  0.0
 -9.854429568065e-01  -9.020387349613e-01  0.0
 -9.854429568065e-01  -9.228720682946e-01  0.0
 -9.854429568065e-01  -9.437054016279e-01  0.0
 -9.854429568065e-01  -9.645387349612e-01  0.0
 -9.854429568065e-01  -9.853720682946e-01  0.0
 -9.708859136130e-01  -7.624108032558e-01  0.0
 -9.708859136130e-01  -7.832441365892e-01  0.0
 -9.708859136130e-01  -8.040774699225e-01  0.0
 -9.708859136130e-01  -8.249108032558e-01  0.0
 -9.708859136130e-01  -8.457441365892e-01  0.0
 -9.708859136130e-01  -8.665774699225e-01  0.0
 -9.708859136130e-01  -8.874108032558e-01  0.0
 -9.708859136130e-01  -9.082441365892e-01  0.0
 -9.708859136130e-01  -9.290774699225e-01  0.0
 -9.708859136130e-01  -9.499108032558e-01  0.0
 -9.708859136130e-01  -9.707441365892e-01  0.0
 -9.563288704195e-01  -7.686162048838e-01  0.0
 -9.563288704195e-01  -7.894495382171e-01  0.0
 -9.563288704195e-01  -8.102828715504e-01  0.0
 -9.563288704195e-01  -8.311162048838e-01  0.0
 -9.563288704195e-01  -8.519495382171e-01  0.0
 -9.563288704195e-01  -8.727828715504e-01  0.0
 -9.563288704195e-01  -8.936162048838e-01  0.0
 -9.563288704195e-01  -9.144495382171e-01  0.0
 -9.563288704195e-01  -9.352828715504e-01  0.0
 -9.563288704195e-01  -9.561162048838e-01  0.0
 -9.417718272260e-01  -7.748216065117e-01  0.0
 -9.417718272260e-01  -7.956549398450e-01  0.0
 -9.417718272260e-01  -8.164882731783e-01  0.0
 -9.417718272260e-01  -8.373216065117e-01  0.0
 -9.417718272260e-01  -8.581549398450e-01  0.0
 -9.417718272260e-01  -8.789882731783e-01  0.0
 -9.417718272260e-01  -8.998216065117e-01  0.0
 -9.417718272260e-01  -9.206549398450e-01  0.0
 -9.417718272260e-01  -9.414882731783e-01  0.0
 -9.272147840325e-01  -7.810270081396e-01  0.0
 -9.272147840325e-01  -8.018603414729e-01  0.0
 -9.272147840325e-01  -8.226936748063e-01  0.0
 -9.272147840325e-01  -8.435270081396e-01  0.0
 -9.272147840325e-01  -8.643603414729e-01  0.0
 -9.272147840325e-01  -8.851936748062e-01  0.0
 -9.272147840325e-01  -9.060270081396e-01  0.0
 -9.272147840325e-01  -9.268603414729e-01  0.0
 -9.126577408390e-01  -7.872324097675e-01  0.0
 -9.126577408390e-01  -8.080657431008e-01  0.0
 -9.126577408390e-01  -8.288990764342e-01  0.0
 -9.126577408390e-01  -8.497324097675e-01  0.0
 -9.126577408390e-01  -8.705657431008e-01  0.0
 -9.126577408390e-01  -8.913990764342e-01  0.0
 -9.126577408390e-01  -9.122324097675e-01  0.0
 -8.981006976455e-01  -7.934378113954e-01  0.0
 -8.981006976455e-01  -8.142711447287e-01  0.0
 -8.981006976455e-01  -8.351044780621e-01  0.0
 -8.981006976455e-01  -8.559378113954e-01  0.0
 -8.981006976455e-01  -8.767711447288e-01  0.0
 -8.981006976455e-01  -8.976044780621e-01  0.0
 -8.835436544520e-01  -7.996432130233e-01  0.0
 -8.835436544520e-01  -8.204765463567e-01  0.0
 -8.835436544520e-01  -8.413098796900e-01  0.0
 -8.835436544520e-01  -8.621432130233e-01  0.0
 -8.835436544520e-01  -8.829765463567e-01  0.0
 -8.689866112585e-01  -8.058486146512e-01  0.0
 -8.689866112585e-01  -8.266819479846e-01  0.0
 -8.689866112585e-01  -8.475152813179e-01  0.0
 -8.689866112585e-01  -8.683486146513e-01  0.0
 -8.544295680650e-01  -8.120540162792e-01  0.0
 -8.544295680650e-01  -8.328873496125e-01  0.0
 -8.544295680650e-01  -8.537206829458e-01  0.0
 -8.398725248715e-01  -8.182594179071e-01  0.0
 -8.398725248715e-01  -8.390927512404e-01  0.0
 -8.253154816780e-01  -8.244648195350e-01  0.0
 -8.253154816780e-01  -8.244648195350e-01  0.0
 -8.398725248715e-01  -8.390927512404e-01  0.0
 -8.544295680650e-01  -8.537206829458e-01  0.0
 -8.689866112585e-01  -8.683486146512e-01  0.0
 -8.835436544520e-01  -8.829765463567e-01  0.0
 -8.981006976455e-01  -8.976044780621e-01  0.0
 -9.126577408390e-01  -9.122324097675e-01  0.0
 -9.272147840325e-01  -9.268603414729e-01  0.0
 -9.417718272260e-01  -9.414882731783e-01  0.0
 -9.563288704195e-01  -9.561162048838e-01  0.0
 -9.708859136130e-01  -9.707441365892e-01  0.0
 -9.854429568065e-01  -9.853720682946e-01  0.0
 -1.000000000000e+00  -1.000000000000e+00  0.0
 -8.190391915382e-01  -8.390927512404e-01  0.0
 -8.335962347317e-01  -8.537206829458e-01  0.0
 -8.481532779252e-01  -8.683486146513e-01  0.0
 -8.627103211187e-01  -8.829765463567e-01  0.0
 -8.772673643122e-01  -8.976044780621e-01  0.0
 -8.918244075057e-01  -9.122324097675e-01  0.0
 -9.063814506992e-01  -9.268603414729e-01  0.0
 -9.209384938927e-01  -9.414882731783e-01  0.0
 -9.354955370862e-01  -9.561162048837e-01  0.0
 -9.500525802797e-01  -9.707441365892e-01  0.0
 -9.646096234732e-01  -9.853720682946e-01  0.0
 -9.791666666667e-01  -1.000000000000e+00  0.0
 -8.127629013983e-01  -8.537206829458e-01  0.0
 -8.273199445918e-01  -8.683486146512e-01  0.0
 -8.418769877853e-01  -8.829765463567e-01  0.0
 -8.564340309788e-01  -8.976044780621e-01  0.0
 -8.709910741723e-01  -9.122324097675e-01  0.0
 -8.855481173658e-01  -9.268603414729e-01  0.0
 -9.001051605593e-01  -9.414882731783e-01  0.0
 -9.146622037528e-01  -9.561162048838e-01  0.0
 -9.292192469463e-01  -9.707441365892e-01  0.0
 -9.437762901398e-01  -9.853720682946e-01  0.0
 -9.583333333333e-01  -1.000000000000e+00  0.0
 -8.064866112585e-01  -8.683486146513e-01  0.0
 -8.210436544520e-01  -8.829765463567e-01  0.0
 -8.356006976455e-01  -8.976044780621e-01  0.0
 -8.501577408390e-01  -9.122324097675e-01  0.0
 -8.647147840325e-01  -9.268603414729e-01  0.0
 -8.792718272260e-01  -9.414882731783e-01  0.0
 -8.938288704195e-01  -9.561162048837e-01  0.0
 -9.083859136130e-01  -9.707441365892e-01  0.0
 -9.229429568065e-01  -9.853720682946e-01  0.0
 -9.375000000000e-01  -1.000000000000e+00  0.0
 -8.002103211187e-01  -8.829765463567e-01  0.0
 -8.147673643122e-01  -8.976044780621e-01  0.0
 -8.293244075057e-01  -9.122324097675e-01  0.0
 -8.438814506992e-01  -9.268603414729e-01  0.0
 -8.584384938927e-01  -9.414882731783e-01  0.0
 -8.729955370862e-01  -9.561162048838e-01  0.0
 -8.875525802797e-01  -9.707441365892e-01  0.0
 -9.021096234732e-01  -9.853720682946e-01  0.0
 -9.166666666667e-01  -1.000000000000e+00  0.0
 -7.939340309788e-01  -8.976044780621e-01  0.0
 -8.084910741723e-01  -9.122324097675e-01  0.0
 -8.230481173658e-01  -9.268603414729e-01  0.0
 -8.376051605593e-01  -9.414882731783e-01  0.0
 -8.521622037528e-01  -9.561162048837e-01  0.0
 -8.667192469463e-01  -9.707441365892e-01  0.0
 -8.812762901398e-01  -9.853720682946e-01  0.0
 -8.958333333333e-01  -1.000000000000e+00  0.0
 -7.876577408390e-01  -9.122324097675e-01  0.0
 -8.022147840325e-01  -9.268603414729e-01  0.0
 -8.167718272260e-01  -9.414882731783e-01  0.0
 -8.313288704195e-01  -9.561162048837e-01  0.0
 -8.458859136130e-01  -9.707441365892e-01  0.0
 -8.604429568065e-01  -9.853720682946e-01  0.0
 -8.750000000000e-01  -1.000000000000e+00  0.0
 -7.813814506992e-01  -9.268603414729e-01  0.0
 -7.959384938927e-01  -9.414882731783e-01  0.0
 -8.104955370862e-01  -9.561162048837e-01  0.0
 -8.250525802797e-01  -9.707441365892e-01  0.0
 -8.396096234732e-01  -9.853720682946e-01  0.0
 -8.541666666667e-01  -1.000000000000e+00  0.0
 -7.751051605593e-01  -9.414882731783e-01  0.0
 -7.896622037528e-01  -9.561162048837e-01  0.0
 -8.042192469463e-01  -9.707441365892e-01  0.0
 -8.187762901398e-01  -9.853720682946e-01  0.0
 -8.333333333333e-01  -1.000000000000e+00  0.0
 -7.688288704195e-01  -9.561162048837e-01  0.0
 -7.833859136130e-01  -9.707441365892e-01  0.0
 -7.979429568065e-01  -9.853720682946e-01  0.0
 -8.125000000000e-01  -1.000000000000e+00  0.0
 -7.625525802797e-01  -9.707441365892e-01  0.0
 -7.771096234732e-01  -9.853720682946e-01  0.0
 -7.916666666667e-01  -1.000000000000e+00  0.0
 -7.562762901398e-01  -9.853720682946e-01  0.0
 -7.708333333333e-01  -1.000000000000e+00  0.0
 -7.500000000000e-01  -1.000000000000e+00  0.0
  7.500000000000e-01  -1.000000000000e+00  0.0
  7.708333333333e-01  -1.000000000000e+00  0.0
  7.916666666667e-01  -1.000000000000e+00  0.0
  8.125000000000e-01  -1.000000000000e+00  0.0
  8.333333333333e-01  -1.000000000000e+00  0.0
  8.541666666667e-01  -1.000000000000e+00  0.0
  8.750000000000e-01  -1.000000000000e+00  0.0
  8.958333333333e-01  -1.000000000000e+00  0.0
  9.166666666667e-01  -1.000000000000e+00  0.0
  9.375000000000e-01  -1.000000000000e+00  0.0
  9.583333333333e-01  -1.000000000000e+00  0.0
  9.791666666667e-01  -1.000000000000e+00  0.0
  1.000000000000e+00  -1.000000000000e+00  0.0
  7.563790508287e-01  -9.849866634216e-01  0.0
  7.772123841620e-01  -9.849866634216e-01  0.0
  7.980457174953e-01  -9.849866634216e-01  0.0
  8.188790508287e-01  -9.849866634216e-01  0.0
  8.397123841620e-01  -9.849866634216e-01  0.0
  8.605457174953e-01  -9.849866634216e-01  0.0
  8.813790508287e-01  -9.849866634216e-01  0.0
  9.022123841620e-01  -9.849866634216e-01  0.0
  9.230457174953e-01  -9.849866634216e-01  0.0
  9.438790508287e-01  -9.849866634216e-01  0.0
  9.647123841620e-01  -9.849866634216e-01  0.0
  9.855457174953e-01  -9.849866634216e-01  0.0
  7.627581016573e-01  -9.699733268432e-01  0.0
  7.835914349907e-01  -9.699733268432e-01  0.0
  8.044247683240e-01  -9.699733268432e-01  0.0
[...]
POINT_DATA 13286
SCALARS field1 double 1
LOOKUP_TABLE default
 -1.042776389960e-11 
  2.063435993732e-12 
 -7.873262703961e-13 
 -4.317178103383e-13 
  9.674694958502e-13 
  6.237189252093e-13 
 -5.185269641981e-13 
 -4.060320178915e-13 
  7.646489585242e-13 
  1.759097947700e-13 
 -3.786555478988e-12 
 -4.821591070881e-12 
  1.706326643448e-11 
 -4.892671867400e-03 
 -5.189952848896e-03 
 -5.465009643123e-03 
 -5.716664430712e-03 
 -5.943839586807e-03 
 -6.145562309408e-03 
 -6.320968789902e-03 
 -6.469307911244e-03 
 -6.589944461740e-03 
 -6.682361854926e-03 
 -6.746164348543e-03 
 -6.781078758116e-03 
 -9.956519137178e-03 
 -1.053749150896e-02 
 -1.107334070194e-02 
 -1.156177215803e-02 
 -1.200069433358e-02 
 -1.238822769110e-02 
 -1.272271275525e-02 
 -1.300271721278e-02 
 -1.322704203858e-02 
 -1.339472663252e-02 
 -1.350505295428e-02 
 -1.517471783688e-02 
 -1.602490886325e-02 
 -1.680647874346e-02 
 -1.751608071141e-02 
 -1.815067613330e-02 
 -1.870754756896e-02 
 -1.918431041528e-02 
 -1.957892310537e-02 
 -1.988969584009e-02 
 -2.011529783059e-02 
 -2.052965212122e-02 
 -2.163377574102e-02 
 -2.264526018587e-02 
 -2.355977416139e-02 
 -2.437340156530e-02 
 -2.508265831607e-02 
 -2.568450727692e-02 
 -2.617637124319e-02 
 -2.655614396373e-02 
 -2.600298604585e-02 
 -2.734501591917e-02 
 -2.856995021414e-02 
 -2.967254360913e-02 
 -3.064807461272e-02 
 -3.149236584862e-02 
 -3.220180194484e-02 
 -3.277334498949e-02 
 -3.157573849670e-02 
 -3.313898396757e-02 
 -3.456032320496e-02 
 -3.583366984647e-02 
 -3.695357120503e-02 
 -3.791523169030e-02 
 -3.871453333901e-02 
 -3.722836096215e-02 
 -3.899554560557e-02 
 -4.059574532345e-02 
 -4.202210784084e-02 
 -4.326852523105e-02 
 -4.432966014528e-02 
 -4.294081781665e-02 
 -4.489416023047e-02 
 -4.665525894505e-02 
 -4.821657269081e-02 
 -4.957141566051e-02 
 -4.869266877616e-02 
 -5.081396527074e-02 
 -5.271766854733e-02 
 -5.439562668949e-02 
 -5.446315317721e-02 
 -5.673386200810e-02 
 -5.876162770852e-02 
 -6.023127572318e-02 
 -6.263260250449e-02 
 -6.597589333313e-02 
 -6.597589333635e-02 
 -6.263260250258e-02 
 -5.876162771092e-02 
 -5.439562668975e-02 
 -4.957141565809e-02 
 -4.432966014353e-02 
 -3.871453333940e-02 
 -3.277334499010e-02 
 -2.655614396226e-02 
 -2.011529782778e-02 
 -1.350505295328e-02 
 -6.781078758826e-03 
  2.251364380138e-11 
 -6.994270405976e-02 
 -6.644529540073e-02 
 -6.242910651745e-02 
 -5.792801475103e-02 
 -5.297997090274e-02 
 -4.762668049633e-02 
 -4.191325340197e-02 
 -3.588782486372e-02 
 -2.960115114056e-02 
 -2.310618314001e-02 
 -1.645762159121e-02 
 -9.711457473347e-03 
 -7.384443411600e-02 
 -7.019525534186e-02 
 -6.603655718589e-02 
 -6.140341328515e-02 
 -5.633488289707e-02 
 -5.087368283242e-02 
 -4.506582858862e-02 
 -3.896024777754e-02 
 -3.260836911104e-02 
 -2.606369037545e-02 
 -1.938132899489e-02 
 -7.766081728825e-02 
 -7.386232095696e-02 
 -6.956391682266e-02 
 -6.480185067752e-02 
 -5.961626334581e-02 
 -5.405085351961e-02 
 -4.815251064915e-02 
 -4.197092103523e-02 
 -3.555815043897e-02 
 -2.896820669327e-02 
 -8.137179491118e-02 
 -7.742653699876e-02 
 -7.299132698329e-02 
 -6.810355786389e-02 
 -6.280442439803e-02 
 -5.713857707729e-02 
 -5.115374702844e-02 
 -4.490034503970e-02 
 -3.843103808043e-02 
 -8.495760483569e-02 
 -8.086824323127e-02 
 -7.629922249225e-02 
 -7.128905708644e-02 
 -6.587996734561e-02 
 -6.011752482424e-02 
 -5.405026947040e-02 
 -4.772930186090e-02 
 -8.839886922276e-02 
 -8.416816214811e-02 
 -7.946841909116e-02 
 -7.433924947769e-02 
 -6.882387014914e-02 
 -6.296874235309e-02 
 -5.682318144828e-02 
 -9.167668078453e-02 
 -8.730748513838e-02 
 -8.248019953487e-02 
 -7.723550109253e-02 
 -7.161757341225e-02 
 -6.567373545353e-02 
 -9.477268710011e-02 
 -9.026795672840e-02 
 -8.531639776445e-02 
 -7.995972701831e-02 
 -7.424306443487e-02 
 -9.766917264313e-02 
 -9.303195653690e-02 
 -8.795948079546e-02 
 -8.249447320192e-02 
 -1.003491381672e-01 
 -9.558257859087e-02 
 -9.039262796939e-02 
 -1.027963771049e-01 
 -9.790370765841e-02 
 -1.049955486463e-01 
  1.049955486472e-01 
  9.790370765117e-02 
  9.039262796159e-02 
  8.249447320000e-02 
  7.424306443638e-02 
  6.567373545405e-02 
  5.682318144691e-02 
  4.772930185972e-02 
  3.843103808063e-02 
  2.896820669303e-02 
  1.938132899241e-02 
  9.711457471497e-03 
 -2.409289781378e-11 
  1.027560533839e-01 
  9.554056576568e-02 
  8.791595877089e-02 
  7.991488216777e-02 
  7.157159776744e-02 
  6.292183278591e-02 
  5.400262685430e-02 
  4.485217338912e-02 
  3.550965603286e-02 
  2.601508087290e-02 
  1.640910514543e-02 
  6.732863128864e-03 
  1.002563267680e-01 
  9.293671473128e-02 
  8.521913338701e-02 
  7.713663064987e-02 
  6.872381702046e-02 
  6.001671745060e-02 
  5.105261708183e-02 
  4.186990157025e-02 
  3.250789270851e-02 
  2.300668005455e-02 
  1.340694927436e-02 
  9.751281315527e-02 
  9.010942397450e-02 
  8.232017236832e-02 
  7.417841316486e-02 
  6.571901061368e-02 
  5.697818916620e-02 
  4.799337836377e-02 
  3.880305254708e-02 
  2.944656609920e-02 
  1.996398493246e-02 
  9.454290393520e-02 
  8.707682743548e-02 
  7.923787455232e-02 
  7.105961294373e-02 
  6.257706316777e-02 
  5.382654879617e-02 
  4.484554087876e-02 
  3.567249747376e-02 
  2.634669895693e-02 
  9.136485531608e-02 
  8.385783772783e-02 
  7.599172796735e-02 
  6.780020997753e-02 
  5.931836108128e-02 
  5.058250185193e-02 
  4.163004058703e-02 
  3.249931310130e-02 
  8.799770232584e-02 
  8.047205690200e-02 
  7.260181774411e-02 
  6.442068647082e-02 
  5.596369592732e-02 
  4.726706024220e-02 
  3.836801974919e-02 
  8.446116942117e-02 
  7.693968421435e-02 
  6.908873144037e-02 
  6.094193012529e-02 
  5.253416610734e-02 
  4.390144271565e-02 
  8.077557810834e-02 
  7.328142131669e-02 
  6.547346220458e-02 
  5.738513569051e-02 
  4.905107720969e-02 
  7.696175199143e-02 
  6.951837529330e-02 
  6.177731021639e-02 
  5.377170523065e-02 
  7.304091967633e-02 
  6.567195998434e-02 
  5.802178285430e-02 
  6.903461597062e-02 
  6.176379604736e-02 
  6.496458183214e-02 
  6.496458182916e-02 
  6.176379604916e-02 
  5.802178285147e-02 
  5.377170523020e-02 
  4.905107721232e-02 
  4.390144271767e-02 
  3.836801974880e-02 
  3.249931310053e-02 
  2.634669895857e-02 
  1.996398493588e-02 
  1.340694927535e-02 
  6.732863126536e-03 
 -1.591827286713e-11 
  5.932497080953e-02 
  5.596200029710e-02 
  5.206706595401e-02 
  4.767463681147e-02 
  4.282344256152e-02 
  3.755614197903e-02 
  3.191895756331e-02 
  2.596127965165e-02 
  1.973524343642e-02 
  1.329528249726e-02 
  6.697662638937e-03 
  5.538705449245e-12 
  5.366257984009e-02 
  5.013946752448e-02 
  4.609404628636e-02 
  4.156206584081e-02 
  3.658344304993e-02 
  3.120192015756e-02 
  2.546469015336e-02 
  1.942199258077e-02 
  1.312668328336e-02 
  6.633781763103e-03 
  4.052226970587e-12 
  4.799716417930e-02 
  4.431607399209e-02 
  4.012271396262e-02 
  3.545408819264e-02 
  3.035127134580e-02 
  2.485905695196e-02 
  1.902557377031e-02 
  1.290187358858e-02 
  6.541494015148e-03 
  6.100201653154e-14 
  4.234833345296e-02 
  3.851155047760e-02 
  3.417291347845e-02 
  2.937065372296e-02 
  2.414697345648e-02 
  1.854768453891e-02 
  1.262181608976e-02 
  6.421194581372e-03 
 -6.087998299216e-13 
  3.673547460923e-02 
  3.274540511707e-02 
  2.826426644679e-02 
  2.333148890721e-02 
  1.799037127641e-02 
  1.228771003963e-02 
  6.273398605158e-03 
  3.773315606147e-13 
  3.117767588811e-02 
  2.703684725635e-02 
  2.241609533836e-02 
  1.735602047726e-02 
  1.190098612825e-02 
  6.098738972801e-03 
  4.332736153543e-13 
  2.569365211371e-02 
  2.140471262027e-02 
  1.664734853439e-02 
  1.146330036442e-02 
  5.897963603134e-03 
 -5.820812764959e-13 
  2.030167161068e-02 
  1.586739010020e-02 
  1.097652699143e-02 
  5.671932247811e-03 
 -8.575023123101e-13 
  1.501948503852e-02 
  1.044275045338e-02 
  5.421612811111e-03 
  3.609108489563e-13 
  9.864256430741e-03 
  5.148077200138e-03 
  5.891771832322e-13 
  4.852496718261e-03 
 -1.904374566773e-12 
  9.403699244349e-12 
  1.198776605120e-11 
 -2.667708497436e-12 
  2.370414128086e-12 
  1.001985689133e-12 
 -2.261157046509e-12 
 -1.924724519108e-12 
  8.908261832840e-13 
  1.900109528682e-12 
 -3.347684571549e-13 
 -1.811453602594e-12 
  2.604404140771e-12 
  6.990097446676e-12 
 -2.418199822412e-11 
  4.878526281908e-03 
  5.174682986419e-03 
  5.448680858647e-03 
  5.699346660799e-03 
  5.925606997875e-03 
  6.126492972512e-03 
  6.301144356227e-03 
  6.448813271740e-03 
  6.568867383563e-03 
  6.660792596556e-03 
  6.724195264625e-03 
  6.758803914261e-03 
  9.931600007293e-03 
  1.051007952620e-02 
  1.104355319268e-02 
  1.152973670158e-02 
  1.196654812357e-02 
  1.235211693884e-02 
  1.268479208292e-02 
  1.296314900495e-02 
  1.318599574132e-02 
  1.335237801004e-02 
  1.346158333360e-02 
  1.514224431882e-02 
  1.598832357085e-02 
  1.676593827666e-02 
  1.747175870159e-02 
  1.810276238675e-02 
  1.865624724860e-02 
  1.912984318776e-02 
  1.952152221304e-02 
  1.982960708936e-02 
  2.005277852038e-02 
  2.049267467811e-02 
  2.159081261625e-02 
  2.259649529423e-02 
  2.350541635531e-02 
  2.431368362301e-02 
  2.501783594632e-02 
  2.561485805270e-02 
  2.610219342040e-02 
  2.647775518446e-02 
  2.596437215859e-02 
  2.729828427862e-02 
  2.851530088344e-02 
  2.961021063812e-02 
  3.057832492634e-02 
  3.141549811372e-02 
  3.211814531890e-02 
  3.268325770937e-02 
  3.153815997204e-02 
  3.309089578684e-02 
  3.450193125314e-02 
  3.576522419600e-02 
  3.687536495231e-02 
  3.782759971750e-02 
  3.861785090117e-02 
  3.719428290765e-02 
  3.894830604757e-02 
  4.053554652409e-02 
  4.194920760366e-02 
  4.318323572523e-02 
  4.423234658839e-02 
  4.291248934232e-02 
  4.484975993380e-02 
  4.659497693776e-02 
  4.814066712628e-02 
  4.948021157658e-02 
  4.867211547202e-02 
  5.077417443919e-02 
  5.265881056713e-02 
  5.431795361149e-02 
  5.445217140622e-02 
  5.670022633218e-02 
  5.870548215588e-02 
  6.023142875867e-02 
  6.260644093530e-02 
  6.598850935945e-02 
  6.598850936551e-02 
  6.260644093282e-02 
  5.870548215770e-02 
  5.431795361128e-02 
  4.948021157403e-02 
  4.423234658710e-02 
  3.861785090252e-02 
  3.268325771127e-02 
  2.647775518439e-02 
  2.005277851822e-02 
  1.346158333058e-02 
  6.758803910771e-03 
 -1.773778903893e-11 
  6.994288430458e-02 
  6.641168220374e-02 
  6.237026675243e-02 
  5.785212357940e-02 
  5.289469241361e-02 
  4.753905661655e-02 
  4.182960239795e-02 
  3.581365064000e-02 
  2.954106441200e-02 
  2.306383541240e-02 
  1.643565273168e-02 
  9.711457485216e-03 
  7.383349722019e-02 
  7.015550084738e-02 
  6.597630390288e-02 
  6.133053504067e-02 
  5.625669279647e-02 
  5.079682631281e-02 
  4.499618654616e-02 
  3.890285092805e-02 
  3.256732460779e-02 
  2.604212156061e-02 
  1.938132900072e-02 
  7.764031831081e-02 
  7.381796357116e-02 
  6.950375089644e-02 
  6.473342917938e-02 
  5.954653042315e-02 
  5.398604187573e-02 
  4.809804945964e-02 
  4.193135551501e-02 
  3.553707403024e-02 
  2.896820669010e-02 
  8.134352338179e-02 
  7.737934102307e-02 
  7.293296707627e-02 
  6.804124714775e-02 
  6.274472068833e-02 
  5.708728475857e-02 
  5.111582991670e-02 
  4.487985129400e-02 
  3.843103807778e-02 
  8.492358092826e-02 
  8.082019481188e-02 
  7.624460080324e-02 
  7.123471697454e-02 
  6.583206354161e-02 
  6.008141848631e-02 
  5.403044614355e-02 
  4.772930186378e-02 
  8.836133806281e-02 
  8.412146337350e-02 
  7.941967526571e-02 
  7.429493932331e-02 
  6.878972919947e-02 
  6.294967432735e-02 
  5.682318145169e-02 
  9.163810491977e-02 
  8.726454631567e-02 
  8.243967276942e-02 
  7.720347173266e-02 
  7.159934234147e-02 
  6.567373545139e-02 
  9.473573717572e-02 
  9.023138688086e-02 
  8.528661714760e-02 
  7.994241097884e-02 
  7.424306443102e-02 
  9.763671633359e-02 
  9.300455217474e-02 
  8.794315393899e-02 
  8.249447320866e-02 
  1.003242274252e-01 
  9.556731081561e-02 
  9.039262798913e-02 
  1.027822337950e-01 
  9.790370766734e-02 
  1.049955486348e-01 
 -1.049955486350e-01 
 -9.790370766708e-02 
 -9.039262798869e-02 
 -8.249447320850e-02 
 -7.424306443109e-02 
 -6.567373545144e-02 
 -5.682318145160e-02 
 -4.772930186352e-02 
 -3.843103807732e-02 
 -2.896820668948e-02 
 -1.938132900032e-02 
 -9.711457485563e-03 
  1.821490687385e-11 
 -1.027679024769e-01 
 -9.555246762752e-02 
 -8.792786244155e-02 
 -7.992673665288e-02 
 -7.158335230683e-02 
 -6.293343705570e-02 
 -5.401403116535e-02 
 -4.486332890078e-02 
 -3.552051497343e-02 
 -2.602559674867e-02 
 -1.641923292648e-02 
 -6.742559423786e-03 
 -1.002899686645e-01 
 -9.296970237127e-02 
 -8.525132553306e-02 
 -7.716788943135e-02 
 -6.875400858032e-02 
 -6.004571251049e-02 
 -5.108029148271e-02 
 -4.189613680389e-02 
 -3.253257643131e-02 
 -2.302970656728e-02 
 -1.342821996128e-02 
 -9.757741298746e-02 
 -9.017186794100e-02 
 -8.238019310445e-02 
 -7.423575363445e-02 
 -6.577342527112e-02 
 -5.702944500456e-02 
 -4.804125590088e-02 
 -3.884734676322e-02 
 -2.948708731823e-02 
 -2.000055963345e-02 
 -9.464678671790e-02 
 -8.717622898859e-02 
 -7.933236925717e-02 
 -7.114879614237e-02 
 -6.266055295875e-02 
 -5.390398766791e-02 
 -4.491659722889e-02 
 -3.573686702702e-02 
 -2.640410607510e-02 
 -9.151545115588e-02 
 -8.400077996137e-02 
 -7.612640452732e-02 
 -6.792604414269e-02 
 -5.943481400589e-02 
 -5.068907487019e-02 
 -4.172627733832e-02 
 -3.258480148886e-02 
 -8.820149872525e-02 
 -8.066416319282e-02 
 -7.278141132670e-02 
 -6.458699828438e-02 
 -5.611601379553e-02 
 -4.740473191865e-02 
 -3.849045570683e-02 
 -8.472367097539e-02 
 -7.718558426133e-02 
 -6.931697702173e-02 
 -6.115154384759e-02 
 -5.272425036974e-02 
 -4.407118355109e-02 
 -8.110127385222e-02 
 -7.358472498833e-02 
 -6.575307502992e-02 
 -5.763986031692e-02 
 -4.927982286553e-02 
 -7.735409061024e-02 
 -6.988165445585e-02 
 -6.210997432182e-02 
 -5.407232975422e-02 
 -7.350229274583e-02 
 -6.609673843162e-02 
 -5.840814772485e-02 
 -6.956634934033e-02 
 -6.225054759841e-02 
 -6.556693520954e-02 
 -6.556693520224e-02 
 -6.225054760103e-02 
 -5.840814772283e-02 
 -5.407232975444e-02 
 -4.927982286827e-02 
 -4.407118355240e-02 
 -3.849045570523e-02 
 -3.258480148671e-02 
 -2.640410607514e-02 
 -2.000055963579e-02 
 -1.342821996457e-02 
 -6.742559427453e-03 
  2.681707112387e-11 
 -5.985512627382e-02 
 -5.638547469276e-02 
 -5.239867376318e-02 
 -4.792852682842e-02 
 -4.301288782660e-02 
 -3.769334418736e-02 
 -3.201486829213e-02 
 -2.602544054870e-02 
 -1.977564728836e-02 
 -1.331825685091e-02 
 -6.707777379916e-03 
 -7.913774118410e-12 
 -5.412135037396e-02 
 -5.050063863598e-02 
 -4.637199346680e-02 
 -4.177040429720e-02 
 -3.673482399129e-02 
 -3.130784253191e-02 
 -2.553533008572e-02 
 -1.946605255776e-02 
 -1.315126290302e-02 
 -6.644271619213e-03 
 -2.372584485839e-12 
 -4.838635199128e-02 
 -4.461688814161e-02 
 -4.034905347202e-02 
 -3.561899962059e-02 
 -3.046675178759e-02 
 -2.493587343655e-02 
 -1.907310120837e-02 
 -1.292795321772e-02 
 -6.552314057919e-03 
  1.925774825706e-12 
 -4.267072642146e-02 
 -3.875492184502e-02 
 -3.435064921856e-02 
 -2.949519771374e-02 
 -2.422963754623e-02 
 -1.859847592433e-02 
 -1.264928406153e-02 
 -6.432298481406e-03 
 -4.069588676428e-14 
 -3.699483565495e-02 
 -3.293520411025e-02 
 -2.839734067610e-02 
 -2.341964660751e-02 
 -1.804420910242e-02 
 -1.231644873494e-02 
 -6.284738820746e-03 
 -2.173496807187e-12 
 -3.137872534748e-02 
 -2.717788191712e-02 
 -2.250936915503e-02 
 -1.741267418928e-02 
 -1.193087247280e-02 
 -6.110266943253e-03 
 -7.513202733144e-13 
 -2.584204322090e-02 
 -2.150270317864e-02 
 -1.670657554638e-02 
 -1.149420637093e-02 
 -5.909629956409e-03 
  2.159273577285e-12 
 -2.040395923465e-02 
 -1.592893682818e-02 
 -1.100832032984e-02 
 -5.683687022316e-03 
  2.233643423751e-12 
 -1.508308785960e-02 
 -1.047529500805e-02 
 -5.433405681140e-03 
 -1.137793731075e-12 
 -9.897412778907e-03 
 -5.159857683375e-03 
 -2.291292441015e-12 
 -4.864214332134e-03 
  2.643607444271e-12 
 -1.151399177388e-11 
  3.157025998783e-11 
 -4.892671846044e-03 
 -9.956519123346e-03 
 -1.517471782855e-02 
 -2.052965211655e-02 
 -2.600298604285e-02 
 -3.157573849467e-02 
 -3.722836096174e-02 
 -4.294081781867e-02 
 -4.869266878093e-02 
 -5.446315318550e-02 
 -6.023127573756e-02 
 -6.597589335388e-02 
 -5.470568745111e-03 
 -1.028634042164e-02 
 -1.526615518052e-02 
 -2.039306195459e-02 
 -2.564933813006e-02 
 -3.101656211587e-02 
 -3.647568898628e-02 
 -4.200712887681e-02 
 -4.759082780356e-02 
 -5.320635056513e-02 
 -5.883296537660e-02 
 -6.444972987420e-02 
 -1.048091480699e-02 
 -1.520852851734e-02 
 -2.009332774213e-02 
 -2.511824580386e-02 
 -3.026546481001e-02 
 -3.551648898951e-02 
 -4.085222101865e-02 
 -4.625304101413e-02 
 -5.169888786103e-02 
 -5.716934253287e-02 
 -6.264371305072e-02 
 -1.499669225529e-02 
 -1.962606578077e-02 
 -2.440606582855e-02 
 -2.931952083758e-02 
 -3.434852834063e-02 
 -3.947452904200e-02 
 -4.467838380069e-02 
 -4.994045319463e-02 
 -5.524067933147e-02 
 -6.055866956084e-02 
 -1.898779243940e-02 
 -2.351009454970e-02 
 -2.817678365411e-02 
 -3.297059321423e-02 
 -3.787354604955e-02 
 -4.286702913247e-02 
 -4.793187120503e-02 
 -5.304842289057e-02 
 -5.819663896368e-02 
 -2.242859266243e-02 
 -2.683630801116e-02 
 -3.138250806324e-02 
 -3.604984033869e-02 
 -4.082026191787e-02 
 -4.567511493229e-02 
 -5.059520479323e-02 
 -5.556088082941e-02 
 -2.529816735625e-02 
 -2.958515029116e-02 
 -3.400506739073e-02 
 -3.854048836101e-02 
 -4.317331259789e-02 
 -4.788484535427e-02 
 -5.265587656129e-02 
 -2.758046006111e-02 
 -3.174197690636e-02 
 -3.603124027357e-02 
 -4.043074924879e-02 
 -4.492235265846e-02 
 -4.948732589584e-02 
 -2.926441484266e-02 
 -3.329717430670e-02 
 -3.745286323944e-02 
 -4.171391635401e-02 
 -4.606213807507e-02 
 -3.034406607636e-02 
 -3.424623753500e-02 
 -3.826689619408e-02 
 -4.238841769307e-02 
 -3.081858582676e-02 
 -3.458980532731e-02 
 -3.847544522746e-02 
 -3.069228834645e-02 
 -3.433365227476e-02 
 -2.997459151702e-02 
  6.551775386001e-11 
 -5.470568759188e-03 
 -1.048091480826e-02 
 -1.499669225089e-02 
 -1.898779244033e-02 
 -2.242859266742e-02 
 -2.529816735903e-02 
 -2.758046006102e-02 
 -2.926441484603e-02 
 -3.034406608633e-02 
 -3.081858583272e-02 
 -3.069228834063e-02 
 -2.997459158487e-02 
 -1.129327516673e-11 
 -5.073468412025e-03 
 -9.662847201934e-03 
 -1.373682180407e-02 
 -1.726849658029e-02 
 -2.023561680323e-02 
 -2.262075187747e-02 
 -2.441143835417e-02 
 -2.560028158344e-02 
 -2.618501514933e-02 
 -2.616851753274e-02 
 -2.555878574750e-02 
 -6.597031202714e-12 
 -4.654642727645e-03 
 -8.803401798214e-03 
 -1.241812815502e-02 
 -1.547525436102e-02 
 -1.795598893525e-02 
 -1.984647087454e-02 
 -2.113788311539e-02 
 -2.182652398501e-02 
 -2.191383599046e-02 
 -2.140639159565e-02 
  6.005125604537e-13 
 -4.215885147126e-03 
 -7.906258861536e-03 
 -1.104625817211e-02 
 -1.361574473882e-02 
 -1.559947077155e-02 
 -1.698720422194e-02 
 -1.777381220059e-02 
 -1.795930187267e-02 
 -1.754881838542e-02 
 -5.861698445682e-13 
 -3.759074494557e-03 
 -6.975260112931e-03 
 -9.627086430460e-03 
 -1.169793041747e-02 
 -1.317615327255e-02 
 -1.405519574648e-02 
 -1.433363111472e-02 
 -1.401517525567e-02 
 -2.430514431963e-12 
 -3.286166906320e-03 
 -6.014392236471e-03 
 -8.166690031328e-03 
 -9.730023754614e-03 
 -1.069641345712e-02 
 -1.106300078675e-02 
 -1.083207120829e-02 
 -6.992417645169e-13 
 -2.799187445635e-03 
 -5.027769806382e-03 
 -6.671322600311e-03 
 -7.720451628002e-03 
 -8.170869972115e-03 
 -8.023432339590e-03 
  1.708732764446e-12 
 -2.300221432530e-03 
 -4.019617686240e-03 
 -5.147387537042e-03 
 -5.677819355359e-03 
 -5.610337540435e-03 
  7.815350145751e-13 
 -1.791405519292e-03 
 -2.994252951529e-03 
 -3.601410588897e-03 
 -3.610873761656e-03 
 -1.610757014626e-12 
 -1.274918541303e-03 
 -1.956066386717e-03 
 -2.040011821092e-03 
  1.699861968218e-12 
 -7.529721730654e-04 