# vtk DataFile Version 2
NuDG++ 2D simulation
ASCII
DATASET UNSTRUCTURED_GRID

POINTS 7854 double
 -1.656250060000e-01  -2.000000030000e-01  0.0
 -1.725000054000e-01  -1.908888817000e-01  0.0
 -1.793750048000e-01  -1.817777604000e-01  0.0
 -1.862500042000e-01  -1.726666391000e-01  0.0
 -1.931250036000e-01  -1.635555178000e-01  0.0
 -2.000000030000e-01  -1.544443965000e-01  0.0
 -1.725000054000e-01  -2.000000030000e-01  0.0
 -1.793750048000e-01  -1.908888817000e-01  0.0
 -1.862500042000e-01  -1.817777604000e-01  0.0
 -1.931250036000e-01  -1.726666391000e-01  0.0
 -2.000000030000e-01  -1.635555178000e-01  0.0
 -1.793750048000e-01  -2.000000030000e-01  0.0
 -1.862500042000e-01  -1.908888817000e-01  0.0
 -1.931250036000e-01  -1.817777604000e-01  0.0
 -2.000000030000e-01  -1.726666391000e-01  0.0
 -1.862500042000e-01  -2.000000030000e-01  0.0
 -1.931250036000e-01  -1.908888817000e-01  0.0
 -2.000000030000e-01  -1.817777604000e-01  0.0
 -1.931250036000e-01  -2.000000030000e-01  0.0
 -2.000000030000e-01  -1.908888817000e-01  0.0
 -2.000000030000e-01  -2.000000030000e-01  0.0
 -6.428571790000e-02  -1.700000018000e-01  0.0
 -7.080357372400e-02  -1.760000020400e-01  0.0
 -7.732142954800e-02  -1.820000022800e-01  0.0
 -8.383928537200e-02  -1.880000025200e-01  0.0
 -9.035714119600e-02  -1.940000027600e-01  0.0
 -9.687499702000e-02  -2.000000030000e-01  0.0
 -6.392857432000e-02  -1.760000020400e-01  0.0
 -7.044643014400e-02  -1.820000022800e-01  0.0
 -7.696428596800e-02  -1.880000025200e-01  0.0
 -8.348214179200e-02  -1.940000027600e-01  0.0
 -8.999999761600e-02  -2.000000030000e-01  0.0
 -6.357143074000e-02  -1.820000022800e-01  0.0
 -7.008928656400e-02  -1.880000025200e-01  0.0
 -7.660714238800e-02  -1.940000027600e-01  0.0
 -8.312499821200e-02  -2.000000030000e-01  0.0
 -6.321428716000e-02  -1.880000025200e-01  0.0
 -6.973214298400e-02  -1.940000027600e-01  0.0
 -7.624999880800e-02  -2.000000030000e-01  0.0
 -6.285714358000e-02  -1.940000027600e-01  0.0
 -6.937499940400e-02  -2.000000030000e-01  0.0
 -6.250000000000e-02  -2.000000030000e-01  0.0
 -2.000000030000e-01  -1.544443965000e-01  0.0
 -1.900000036000e-01  -1.478412374800e-01  0.0
 -1.800000042000e-01  -1.412380784600e-01  0.0
 -1.700000048000e-01  -1.346349194400e-01  0.0
 -1.600000054000e-01  -1.280317604200e-01  0.0
 -1.500000060000e-01  -1.214286014000e-01  0.0
 -2.000000030000e-01  -1.453332975600e-01  0.0
 -1.900000036000e-01  -1.387301385400e-01  0.0
 -1.800000042000e-01  -1.321269795200e-01  0.0
 -1.700000048000e-01  -1.255238205000e-01  0.0
 -1.600000054000e-01  -1.189206614800e-01  0.0
 -2.000000030000e-01  -1.362221986200e-01  0.0
 -1.900000036000e-01  -1.296190396000e-01  0.0
 -1.800000042000e-01  -1.230158805800e-01  0.0
 -1.700000048000e-01  -1.164127215600e-01  0.0
 -2.000000030000e-01  -1.271110996800e-01  0.0
 -1.900000036000e-01  -1.205079406600e-01  0.0
 -1.800000042000e-01  -1.139047816400e-01  0.0
 -2.000000030000e-01  -1.180000007400e-01  0.0
 -1.900000036000e-01  -1.113968417200e-01  0.0
 -2.000000030000e-01  -1.088889018000e-01  0.0
 -1.500000060000e-01  -1.214286014000e-01  0.0
 -1.600000054000e-01  -1.280317604200e-01  0.0
 -1.700000048000e-01  -1.346349194400e-01  0.0
 -1.800000042000e-01  -1.412380784600e-01  0.0
 -1.900000036000e-01  -1.478412374800e-01  0.0
 -2.000000030000e-01  -1.544443965000e-01  0.0
 -1.500000060000e-01  -1.311428814800e-01  0.0
 -1.600000054000e-01  -1.377460405000e-01  0.0
 -1.700000048000e-01  -1.443491995200e-01  0.0
 -1.800000042000e-01  -1.509523585400e-01  0.0
 -1.900000036000e-01  -1.575555175600e-01  0.0
 -1.500000060000e-01  -1.408571615600e-01  0.0
 -1.600000054000e-01  -1.474603205800e-01  0.0
 -1.700000048000e-01  -1.540634796000e-01  0.0
 -1.800000042000e-01  -1.606666386200e-01  0.0
 -1.500000060000e-01  -1.505714416400e-01  0.0
 -1.600000054000e-01  -1.571746006600e-01  0.0
 -1.700000048000e-01  -1.637777596800e-01  0.0
 -1.500000060000e-01  -1.602857217200e-01  0.0
 -1.600000054000e-01  -1.668888807400e-01  0.0
 -1.500000060000e-01  -1.700000018000e-01  0.0
 -1.500000060000e-01  -7.285714149000e-02  0.0
 -1.600000054000e-01  -8.006349355200e-02  0.0
 -1.700000048000e-01  -8.726984561400e-02  0.0
 -1.800000042000e-01  -9.447619767600e-02  0.0
 -1.900000036000e-01  -1.016825497380e-01  0.0
 -2.000000030000e-01  -1.088889018000e-01  0.0
 -1.500000060000e-01  -8.257143347200e-02  0.0
 -1.600000054000e-01  -8.977778553400e-02  0.0
 -1.700000048000e-01  -9.698413759600e-02  0.0
 -1.800000042000e-01  -1.041904896580e-01  0.0
 -1.900000036000e-01  -1.113968417200e-01  0.0
 -1.500000060000e-01  -9.228572545400e-02  0.0
 -1.600000054000e-01  -9.949207751600e-02  0.0
 -1.700000048000e-01  -1.066984295780e-01  0.0
 -1.800000042000e-01  -1.139047816400e-01  0.0
 -1.500000060000e-01  -1.020000174360e-01  0.0
 -1.600000054000e-01  -1.092063694980e-01  0.0
 -1.700000048000e-01  -1.164127215600e-01  0.0
 -1.500000060000e-01  -1.117143094180e-01  0.0
 -1.600000054000e-01  -1.189206614800e-01  0.0
 -1.500000060000e-01  -1.214286014000e-01  0.0
  1.832975030000e+00  -4.625000060000e-02  0.0
  1.841380024000e+00  -7.700000108000e-02  0.0
  1.849785018000e+00  -1.077500015600e-01  0.0
  1.858190012000e+00  -1.385000020400e-01  0.0
  1.866595006000e+00  -1.692500025200e-01  0.0
  1.875000000000e+00  -2.000000030000e-01  0.0
  1.866380024000e+00  -5.649999976400e-02  0.0
  1.874785018000e+00  -8.725000024400e-02  0.0
  1.883190012000e+00  -1.180000007240e-01  0.0
  1.891595006000e+00  -1.487500012040e-01  0.0
  1.900000000000e+00  -1.795000016840e-01  0.0
  1.899785018000e+00  -6.674999892800e-02  0.0
  1.908190012000e+00  -9.749999940800e-02  0.0
  1.916595006000e+00  -1.282499998880e-01  0.0
  1.925000000000e+00  -1.590000003680e-01  0.0
  1.933190012000e+00  -7.699999809200e-02  0.0
  1.941595006000e+00  -1.077499985720e-01  0.0
  1.950000000000e+00  -1.384999990520e-01  0.0
  1.966595006000e+00  -8.724999725600e-02  0.0
  1.975000000000e+00  -1.179999977360e-01  0.0
  2.000000000000e+00  -9.749999642000e-02  0.0
 -1.500000060000e-01  -1.700000018000e-01  0.0
 -1.444000050800e-01  -1.630000025200e-01  0.0
 -1.388000041600e-01  -1.560000032400e-01  0.0
 -1.332000032400e-01  -1.490000039600e-01  0.0
 -1.276000023200e-01  -1.420000046800e-01  0.0
 -1.220000014000e-01  -1.350000054000e-01  0.0
 -1.500000060000e-01  -1.602857217200e-01  0.0
 -1.444000050800e-01  -1.532857224400e-01  0.0
 -1.388000041600e-01  -1.462857231600e-01  0.0
 -1.332000032400e-01  -1.392857238800e-01  0.0
 -1.276000023200e-01  -1.322857246000e-01  0.0
 -1.500000060000e-01  -1.505714416400e-01  0.0
 -1.444000050800e-01  -1.435714423600e-01  0.0
 -1.388000041600e-01  -1.365714430800e-01  0.0
 -1.332000032400e-01  -1.295714438000e-01  0.0
 -1.500000060000e-01  -1.408571615600e-01  0.0
 -1.444000050800e-01  -1.338571622800e-01  0.0
 -1.388000041600e-01  -1.268571630000e-01  0.0
 -1.500000060000e-01  -1.311428814800e-01  0.0
 -1.444000050800e-01  -1.241428822000e-01  0.0
 -1.500000060000e-01  -1.214286014000e-01  0.0
  2.849999964000e-01  -2.333333530000e-02  0.0
  2.844999968800e-01  -4.666666836000e-02  0.0
  2.839999973600e-01  -7.000000142000e-02  0.0
  2.834999978400e-01  -9.333333448000e-02  0.0
  2.829999983200e-01  -1.166666675400e-01  0.0
  2.824999988000e-01  -1.400000006000e-01  0.0
  2.979999959200e-01  -3.266666830000e-02  0.0
  2.974999964000e-01  -5.600000136000e-02  0.0
  2.969999968800e-01  -7.933333442000e-02  0.0
  2.964999973600e-01  -1.026666674800e-01  0.0
  2.959999978400e-01  -1.260000005400e-01  0.0
  3.109999954400e-01  -4.200000130000e-02  0.0
  3.104999959200e-01  -6.533333436000e-02  0.0
  3.099999964000e-01  -8.866666742000e-02  0.0
  3.094999968800e-01  -1.120000004800e-01  0.0
  3.239999949600e-01  -5.133333430000e-02  0.0
  3.234999954400e-01  -7.466666736000e-02  0.0
  3.229999959200e-01  -9.800000042000e-02  0.0
  3.369999944800e-01  -6.066666730000e-02  0.0
  3.364999949600e-01  -8.400000036000e-02  0.0
  3.499999940000e-01  -7.000000030000e-02  0.0
 -1.071429029000e-01  -1.700000018000e-01  0.0
 -9.857146590000e-02  -1.700000018000e-01  0.0
 -9.000002890000e-02  -1.700000018000e-01  0.0
 -8.142859190000e-02  -1.700000018000e-01  0.0
 -7.285715490000e-02  -1.700000018000e-01  0.0
 -6.428571790000e-02  -1.700000018000e-01  0.0
 -1.037143230360e-01  -1.630000025200e-01  0.0
 -9.514288603600e-02  -1.630000025200e-01  0.0
 -8.657144903600e-02  -1.630000025200e-01  0.0
 -7.800001203600e-02  -1.630000025200e-01  0.0
 -6.942857503600e-02  -1.630000025200e-01  0.0
 -1.002857431720e-01  -1.560000032400e-01  0.0
 -9.171430617200e-02  -1.560000032400e-01  0.0
 -8.314286917200e-02  -1.560000032400e-01  0.0
 -7.457143217200e-02  -1.560000032400e-01  0.0
 -9.685716330800e-02  -1.490000039600e-01  0.0
 -8.828572630800e-02  -1.490000039600e-01  0.0
 -7.971428930800e-02  -1.490000039600e-01  0.0
 -9.342858344400e-02  -1.420000046800e-01  0.0
 -8.485714644400e-02  -1.420000046800e-01  0.0
 -9.000000358000e-02  -1.350000054000e-01  0.0
 -1.312499940000e-01  -2.000000030000e-01  0.0
 -1.264285757800e-01  -1.940000027600e-01  0.0
 -1.216071575600e-01  -1.880000025200e-01  0.0
 -1.167857393400e-01  -1.820000022800e-01  0.0
 -1.119643211200e-01  -1.760000020400e-01  0.0
 -1.071429029000e-01  -1.700000018000e-01  0.0
 -1.349999964000e-01  -1.940000027600e-01  0.0
 -1.301785781800e-01  -1.880000025200e-01  0.0
 -1.253571599600e-01  -1.820000022800e-01  0.0
 -1.205357417400e-01  -1.760000020400e-01  0.0
 -1.157143235200e-01  -1.700000018000e-01  0.0
 -1.387499988000e-01  -1.880000025200e-01  0.0
 -1.339285805800e-01  -1.820000022800e-01  0.0
 -1.291071623600e-01  -1.760000020400e-01  0.0
 -1.242857441400e-01  -1.700000018000e-01  0.0
 -1.425000012000e-01  -1.820000022800e-01  0.0
 -1.376785829800e-01  -1.760000020400e-01  0.0
 -1.328571647600e-01  -1.700000018000e-01  0.0
 -1.462500036000e-01  -1.760000020400e-01  0.0
 -1.414285853800e-01  -1.700000018000e-01  0.0
 -1.500000060000e-01  -1.700000018000e-01  0.0
[...]
POINT_DATA 7854
SCALARS field1 double 1
LOOKUP_TABLE default
 -5.250426362033e-06 
  1.656212377030e-02 
  2.060325164133e-02 
  2.195618928295e-02 
  2.464306530089e-02 
  2.914067516522e-02 
 -2.831069409660e-06 
  1.364728235167e-02 
  1.702664487700e-02 
  1.943857601856e-02 
  2.389210737597e-02 
  2.198281525097e-06 
  1.049424880263e-02 
  1.396805294801e-02 
  1.836033444317e-02 
  5.764467595186e-06 
  7.702382056739e-03 
  1.253454037248e-02 
 -3.138684987346e-06 
  6.409348209319e-03 
  1.944069428203e-06 
  5.643550987833e-02 
  5.379543503690e-02 
  4.915113622804e-02 
  4.061874466029e-02 
  2.541403424556e-02 
 -4.268335270056e-07 
  5.478369285628e-02 
  5.012551268800e-02 
  4.149573869554e-02 
  2.600919170949e-02 
 -1.711790323696e-07 
  5.103627794539e-02 
  4.231653672449e-02 
  2.657059239875e-02 
 -1.948069806352e-07 
  4.308306845533e-02 
  2.709648632934e-02 
 -1.914992597096e-07 
  2.758515919835e-02 
 -8.875078665861e-08 
 -2.965923256819e-07 
  2.914346120687e-02 
  3.350101472929e-02 
  3.815263129672e-02 
  4.222733867903e-02 
  4.552948019321e-02 
  4.819419568134e-02 
  3.409751298603e-02 
  3.795261261519e-02 
  4.184468533400e-02 
  4.522056000169e-02 
  4.792952278302e-02 
  3.875972129248e-02 
  4.215595190366e-02 
  4.537956167804e-02 
  4.808643674850e-02 
  4.313033417790e-02 
  4.611223848411e-02 
  4.871353616355e-02 
  4.720920004905e-02 
  4.979977095389e-02 
  5.099927029879e-02 
  4.819277365681e-02 
  4.552971861085e-02 
  4.222606916001e-02 
  3.815336983959e-02 
  3.350019916802e-02 
  2.914571487951e-02 
  4.611261007074e-02 
  4.290262191238e-02 
  3.893234980105e-02 
  3.407332760573e-02 
  2.856920276931e-02 
  4.399111173688e-02 
  4.027252391506e-02 
  3.564403459856e-02 
  2.993872705936e-02 
  4.194230840273e-02 
  3.774216556899e-02 
  3.242920150350e-02 
  4.002741293831e-02 
  3.528324735287e-02 
  3.801469635142e-02 
  5.637016143120e-02 
  5.645232064264e-02 
  5.603687716174e-02 
  5.506113370327e-02 
  5.342082719449e-02 
  5.100045664027e-02 
  5.515530535716e-02 
  5.463858826353e-02 
  5.361447413930e-02 
  5.201718223286e-02 
  4.979945542033e-02 
  5.368475064991e-02 
  5.260269278808e-02 
  5.096246583364e-02 
  4.871297250537e-02 
  5.200974081514e-02 
  5.036186319442e-02 
  4.808638225010e-02 
  5.016475303210e-02 
  4.793028255760e-02 
  4.819176528996e-02 
  5.834991280958e-02 
  4.598649618552e-02 
  4.840597448604e-02 
  5.020525947246e-02 
  5.348392711540e-02 
  3.941337197138e-04 
  5.106240961567e-02 
  5.085678942604e-02 
  4.996606961981e-02 
  5.062334814509e-02 
  4.647321969622e-02 
  5.093112999897e-02 
  5.131470680731e-02 
  4.983438377271e-02 
  5.099020164276e-02 
  5.099557757943e-02 
  5.041254215909e-02 
  4.891649744595e-02 
  5.131219222524e-02 
  4.888892103989e-02 
  5.354471051285e-02 
  3.801511593964e-02 
  4.113514293959e-02 
  4.372332045069e-02 
  4.597201856792e-02 
  4.796623928295e-02 
  4.971808728501e-02 
  4.002608763998e-02 
  4.279143556381e-02 
  4.520915227529e-02 
  4.733016455997e-02 
  4.918695613527e-02 
  4.194193696314e-02 
  4.454053379644e-02 
  4.679817199197e-02 
  4.874381733489e-02 
  4.399076156385e-02 
  4.638186720310e-02 
  4.842157987261e-02 
  4.611096799436e-02 
  4.822674884799e-02 
  4.819246968557e-02 
  5.206379507115e-02 
  5.032908463043e-02 
  5.108649066159e-02 
  5.120805266298e-02 
  5.127792597879e-02 
  5.294127611846e-02 
  5.080493575540e-02 
  5.086664438382e-02 
  5.117634742098e-02 
  5.107319262595e-02 
  5.127805222962e-02 
  5.096297244814e-02 
  5.111999246746e-02 
  5.118810474501e-02 
  5.100807098732e-02 
  5.151107246175e-02 
  5.117127840339e-02 
  5.113592594763e-02 
  5.146106660374e-02 
  5.126333144833e-02 
  5.096543665260e-02 
  4.902640311837e-02 
  5.072134985564e-02 
  5.229441874342e-02 
  5.377006736155e-02 
  5.514817668609e-02 
  5.643771779006e-02 
  5.059758851939e-02 
  5.221200691473e-02 
  5.373780765236e-02 
  5.517714287054e-02 
  5.653110793941e-02 
  5.177895509097e-02 
  5.331738845789e-02 
  5.479084295081e-02 
  5.620133455507e-02 
  5.284395757125e-02 
  5.431631823085e-02 
  5.575285834077e-02 
  5.386097622790e-02 
  5.528878209413e-02 
  5.485046270847e-02 
  1.148998504085e-06 
  2.152466207491e-02 
  3.464752506859e-02 
  4.220688206812e-02 
  4.648460139320e-02 
  4.902705984369e-02 
  2.033033817207e-02 
  3.290991074190e-02 
  4.029565099862e-02 
  4.457987170267e-02 
  4.722436514019e-02 
  3.095272799920e-02 
  3.817032759473e-02 
  4.248985530026e-02 
  4.525212728208e-02 
  3.577544192992e-02 
  4.016493673621e-02 
  4.308963312556e-02 
  3.754725134190e-02 
  4.069305878622e-02 
  3.801519862084e-02 
  4.972180025659e-02 
  5.074131289105e-02 
  5.175542573407e-02 
  5.277757215085e-02 
  5.380485567895e-02 
  5.484982229954e-02 
  5.069313088247e-02 
  5.159401549813e-02 
  5.251783810435e-02 
  5.346912114992e-02 
  5.444918045056e-02 
  5.157682506077e-02 
  5.237335823708e-02 
  5.321213151333e-02 
  5.410026914397e-02 
  5.236076933572e-02 
  5.305603520826e-02 
  5.381622433110e-02 
  5.302278146113e-02 
  5.361893342682e-02 
  5.352843335586e-02 
  5.484956246473e-02 
  5.380503023347e-02 
  5.277753460268e-02 
  5.175553635150e-02 
  5.074133154635e-02 
  4.972213444779e-02 
  5.386152044283e-02 
  5.278717259129e-02 
  5.170242849254e-02 
  5.060488843622e-02 
  4.948996678964e-02 
  5.284387473234e-02 
  5.171409430385e-02 
  5.055630929851e-02 
  4.936618266346e-02 
  5.177929112672e-02 
  5.058284426801e-02 
  4.933956533551e-02 
  5.059776860649e-02 
  4.932645633742e-02 
  4.902736095100e-02 
  5.797470653492e-02 
  5.673847648386e-02 
  5.572621590700e-02 
  5.488311161478e-02 
  5.416559381460e-02 
  5.352850638242e-02 
  5.770213011352e-02 
  5.647641521900e-02 
  5.541414399607e-02 
  5.447285987694e-02 
  5.361886302584e-02 
  5.718791133923e-02 
  5.596661132857e-02 
  5.485242467266e-02 
  5.381618524668e-02 
  5.650683793097e-02 
  5.527351908991e-02 
  5.410020957925e-02 
  5.571197411975e-02 
  5.444904598353e-02 
  5.485025246146e-02 
  4.972056466854e-02 
  5.069317422281e-02 
  5.157676137626e-02 
  5.236071850610e-02 
  5.302293275756e-02 
  5.352815656446e-02 
  4.918645018522e-02 
  5.024748673716e-02 
  5.121565861341e-02 
  5.206855531130e-02 
  5.278461576595e-02 
  4.874417430749e-02 
  4.991333360004e-02 
  5.097340797616e-02 
  5.190573855049e-02 
  4.842082719831e-02 
  4.970416206747e-02 
  5.086561726835e-02 
  4.822679879952e-02 
  4.963510836246e-02 
  4.819122213106e-02 
  5.797423666663e-02 
  5.770213384176e-02 
  5.718787606507e-02 
  5.650688767267e-02 
  5.571179943881e-02 
  5.485123229896e-02 
  5.901266477449e-02 
  5.851871865042e-02 
  5.785461289020e-02 
  5.708093523383e-02 
  5.623826898061e-02 
  6.001096102482e-02 
  5.930656136390e-02 
  5.850345026740e-02 
  5.764898606949e-02 
  6.093336903307e-02 
  6.004030182314e-02 
  5.911778399358e-02 
  6.175822129771e-02 
  6.070186196217e-02 
  6.246483859090e-02 
  4.902736674762e-02 
  4.932684438783e-02 
  4.933985307478e-02 
  4.936622155274e-02 
  4.949003440997e-02 
  4.972059059818e-02 
  4.722461099398e-02 
  4.752120724995e-02 
  4.758940828582e-02 
  4.771111946438e-02 
  4.796588412494e-02 
  4.525225219295e-02 
  4.557529105842e-02 
  4.572375023046e-02 
  4.597216411916e-02 
  4.308981419164e-02 
  4.345714654307e-02 
  4.372274614271e-02 
  4.069323376942e-02 
  4.113479781069e-02 
  3.801505475720e-02 
  2.649376041984e-08 
 -1.645810544241e-07 
 -9.258497898641e-08 
 -1.983439050841e-07 
 -1.557599115488e-07 
 -7.174230212893e-07 
  3.017746880795e-02 
  3.008506706037e-02 
  2.983554769928e-02 
  2.946416307957e-02 
  2.901102468543e-02 
  4.720366749987e-02 
  4.702156118580e-02 
  4.659749547052e-02 
  4.599338990034e-02 
  5.600119182193e-02 
  5.572258970859e-02 
  5.517103423351e-02 
  6.017796338725e-02 
  5.979112056359e-02 
  6.203214830727e-02 
  5.636946681647e-02 
  5.515395511072e-02 
  5.368445401866e-02 
  5.201024898092e-02 
  5.016501783998e-02 
  4.819133526710e-02 
  5.512055500159e-02 
  5.403825108954e-02 
  5.274505479345e-02 
  5.126640899619e-02 
  4.963498187218e-02 
  5.421884284526e-02 
  5.328845190495e-02 
  5.216051986713e-02 
  5.086577498900e-02 
  5.365977234091e-02 
  5.287908121257e-02 
  5.190592054181e-02 
  5.344469778654e-02 
  5.278462667352e-02 
  5.352785295834e-02 
  6.556800201964e-02 
  6.426485890331e-02 
  6.208335373672e-02 
  5.985742228183e-02 
  5.792916268347e-02 
  5.637148617282e-02 
  6.638301458955e-02 
  6.401755271033e-02 
  6.152653891429e-02 
  5.928560748524e-02 
  5.737486523736e-02 
  6.566637858449e-02 
  6.292808217643e-02 
  6.040464081779e-02 
  5.818625691405e-02 
  6.408819926553e-02 
  6.130860574489e-02 
  5.881421061010e-02 
  6.202200022059e-02 
  5.927547691207e-02 
  5.959540122775e-02 
  6.556916958887e-02 
  6.323667071413e-02 
  6.061464513651e-02 
  5.770193072062e-02 
  5.449675378002e-02 
  5.099919338541e-02 
  6.426470576444e-02 
  6.197196760647e-02 
  5.939906433300e-02 
  5.654972442187e-02 
  5.342065566080e-02 
  6.208447812021e-02 
  5.999965931255e-02 
  5.765107872539e-02 
  5.506052794751e-02 
  5.985644397053e-02 
  5.806370525948e-02 
  5.603813963585e-02 
  5.792872658449e-02 
  5.645263748682e-02 
  5.637153598652e-02 
  6.556877051829e-02 
  6.638213055335e-02 
  6.566605002079e-02 
  6.408841676468e-02 
  6.202265962590e-02 
  5.959408749718e-02 
  6.760963185501e-02 
  6.808678921701e-02 
  6.695079700557e-02 
  6.495137349251e-02 
  6.252476617946e-02 
  6.935774792108e-02 
  6.951780989854e-02 
  6.799233697466e-02 
  6.561543526021e-02 
  7.081360180439e-02 
  7.066737731426e-02 
  6.878419899374e-02 
  7.197916163264e-02 
  7.154472770811e-02 
  7.285280873884e-02 
  5.959728915318e-02 
  5.927461626098e-02 
  5.881417530314e-02 
  5.818711840619e-02 
  5.737610322682e-02 
  5.636904693136e-02 
  5.715159340870e-02 
  5.704656520699e-02 
  5.685413433349e-02 
  5.652358757805e-02 
  5.601551099661e-02 
  5.482881446892e-02 
  5.500634194191e-02 
  5.512901764661e-02 
  5.512545610800e-02 
  5.260726271146e-02 
  5.315093353836e-02 
  5.365454967028e-02 
  5.048806737160e-02 
  5.149612535437e-02 
  4.850217058771e-02 
  4.674455523263e-02 
  4.975655512143e-02 
  5.253033644192e-02 
  5.506978439004e-02 
  5.741440306330e-02 
  5.959771801061e-02 
  4.652997365405e-02 
  4.967248219785e-02 
  5.244656211110e-02 
  5.492326259773e-02 
  5.715140175068e-02 
  4.662977480700e-02 
  4.977702170543e-02 
  5.247803669761e-02 
  5.482875911926e-02 
  4.701603399421e-02 
  5.005808050114e-02 
  5.260738201098e-02 
  4.765449149425e-02 
  5.048812828145e-02 
  4.850199661262e-02 
  5.959718198111e-02 
  5.982052340596e-02 
  5.999670996383e-02 
  6.011182668438e-02 
  6.016712021543e-02 
  6.015675836342e-02 
  6.252431710521e-02 
  6.291254064424e-02 
  6.315777975871e-02 
  6.326246185187e-02 
  6.323963737405e-02 
  6.561698054899e-02 
  6.612575821276e-02 
  6.641696968753e-02 
  6.650123380445e-02 
  6.878296652233e-02 
  6.936448971887e-02 
  6.968236223184e-02 
  7.154535129297e-02 
  7.216321447208e-02 
  7.284980377625e-02 
  5.636754243614e-02 
  5.536604333674e-02 
  5.448402976752e-02 
  5.374932199861e-02 
  5.319859542489e-02 
  5.294760201103e-02 
  5.601586373741e-02 
  5.478220608572e-02 
  5.366175610307e-02 
  5.266798482027e-02 
  5.187584037492e-02 
  5.512509519623e-02 
  5.362221305894e-02 
  5.218294758008e-02 
  5.083454969181e-02 
  5.365427043367e-02 
  5.178049787264e-02 
  4.988340927663e-02 
  5.149607374139e-02 
  4.908812356750e-02 
  4.850227405497e-02 
  5.434294847888e-02 
  5.162602119311e-02 
  5.050831453199e-02 
  5.077825469716e-02 
  5.221922011213e-02 
  5.262805742908e-02 
  5.111333083500e-02 
  5.110789201696e-02 
  5.113242165562e-02 
  5.231232030987e-02 
  5.434249813050e-02 
  5.096720900445e-02 
  5.067202802567e-02 
  5.045540639364e-02 
  5.021211428801e-02 
  4.975592572943e-02 
  5.066311381638e-02 
  4.924667795158e-02 
  4.060405519908e-02 
  4.676828860667e-02 
  1.777841947421e-04 
  4.582836089131e-02 
  4.820514721594e-02 
  4.993351909225e-02 
  5.123460533051e-02 
  5.221326953278e-02 
  5.295245836110e-02 
  4.821866319977e-02 
  5.007912678299e-02 
  5.140392301206e-02 
  5.238225668489e-02 
  5.309379955214e-02 
  5.078742945679e-02 
  5.208839464599e-02 
  5.297365305340e-02 
  5.360375795851e-02 
  5.345356992866e-02 
  5.416927618099e-02 
  5.459587616268e-02 
  5.612583221112e-02 
  5.625358342330e-02 
  5.871752127300e-02 
  5.294731675753e-02 
  5.319863247184e-02 
  5.374922697052e-02 
  5.448427476234e-02 
  5.536600794323e-02 
  5.636807787761e-02 
  5.376646608965e-02 
  5.376766221995e-02 
  5.404078811418e-02 
  5.450688457673e-02 
  5.512030980310e-02 
  5.418385668205e-02 
  5.396930847734e-02 
  5.400512547610e-02 
  5.421830635348e-02 
  5.425043453824e-02 
  5.385119247561e-02 
  5.366007729215e-02 
  5.402281492592e-02 
  5.344451583862e-02 
  5.352842181861e-02 
  1.847624933812e-02 
  2.283990531018e-02 
  2.667239143400e-02 
  3.001601055528e-02 
  3.294145706038e-02 
  3.552570545652e-02 
  2.015418974548e-02 
  2.439311480581e-02 
  2.808004952234e-02 
  3.127140618183e-02 
  3.403361812530e-02 
  2.229524725477e-02 
  2.641909463745e-02 
  2.989831287049e-02 
  3.287037926874e-02 
  2.494980812850e-02 
  2.888005233171e-02 
  3.209139831325e-02 
  2.811375333688e-02 
  3.173882711402e-02 
  3.170855865700e-02 
  3.552234242082e-02 
  3.906702422828e-02 
  4.201767237291e-02 
  4.450347531159e-02 
  4.663616513225e-02 
  4.850325123598e-02 
  3.689436853832e-02 
  4.017570122914e-02 
  4.288431908685e-02 
  4.516903194198e-02 
  4.712474185169e-02 
  3.869925670478e-02 
  4.159552707903e-02 
  4.398911990740e-02 
  4.601781434564e-02 
  4.085743769272e-02 
  4.328267319486e-02 
  4.529707083042e-02 
  4.326613046503e-02 
  4.517019934621e-02 
  4.583006418797e-02 
  4.582637936777e-02 
  4.421236529867e-02 
  4.215397965742e-02 
  3.955073105029e-02 
  3.616484169396e-02 
  3.170939270097e-02 
  4.326526107158e-02 
  4.121933015912e-02 
  3.871910977821e-02 
  3.562087153359e-02 
  3.173885159494e-02 
  4.085739456848e-02 
  3.845484712927e-02 
  3.557090842849e-02 
  3.209124857581e-02 
  3.869896409751e-02 
  3.602790998123e-02 
  3.287008172261e-02 
  3.689363889098e-02 
  3.403382762328e-02 
  3.552523803360e-02 
  3.552102399712e-02 
  3.703006511381e-02 
  3.918283776907e-02 
  4.164579187538e-02 
  4.420457272643e-02 
  4.674344213104e-02 
  3.906737197550e-02 
  4.034642278101e-02 
  4.216644744596e-02 
  4.428485656621e-02 
  4.652963630480e-02 
  4.201770744447e-02 
  4.314879111911e-02 
  4.474999121366e-02 
  4.662924473276e-02 
  4.450328971645e-02 
  4.555633835437e-02 
  4.701574040561e-02 
  4.663632043596e-02 
  4.765447978768e-02 
  4.850200734648e-02 
  5.797480044588e-02 
  5.844667707666e-02 
  5.881435300965e-02 
  5.905373569878e-02 
  5.909075704651e-02 
  5.871847515329e-02 
  5.703618649611e-02 
  5.720947424251e-02 
  5.718960780655e-02 
  5.691048778116e-02 
  5.625342508389e-02 
  5.601815341030e-02 
  5.586442030805e-02 
  5.542375566174e-02 
  5.459613635173e-02 
  5.496510694712e-02 
  5.447184795326e-02 
  5.360354275308e-02 
  5.392340668814e-02 
  5.309391534166e-02 
  5.295174830346e-02 
  4.583146370890e-02 
  4.516983751362e-02 
  4.529740215878e-02 
  4.601769516380e-02 
  4.712486616498e-02 
  4.850285205315e-02 
  4.820468509792e-02 
  4.755089968927e-02 
  4.759921671274e-02 
  4.815862546759e-02 
  4.908889733787e-02 
  4.993392623153e-02 
  4.937983799053e-02 
  4.940766043088e-02 
  4.988418117916e-02 
  5.123442640639e-02 
  5.078975259073e-02 
  5.083549759838e-02 
  5.221354825084e-02 
  5.187623383776e-02 
  5.295012627548e-02 
  5.797527790964e-02 
  5.703587679452e-02 
  5.601781381464e-02 
  5.496445841719e-02 
  5.392299481107e-02 
  5.294895558173e-02 
  5.673843501486e-02 
  5.599801956324e-02 
  5.523348075619e-02 
  5.447652361087e-02 
  5.376625214298e-02 
  5.572637515042e-02 
  5.518879452400e-02 
  5.466584936413e-02 
  5.418399847285e-02 
  5.488301364867e-02 
  5.454518482986e-02 
  5.425037037266e-02 
  5.416573888337e-02 
  5.402321796371e-02 
  5.352801473408e-02 
  3.552365609941e-02 
  3.294202411246e-02 
  3.001575768939e-02 
  2.667202519573e-02 
  2.283993307019e-02 
  1.847742512551e-02 
  3.380319945299e-02 
  3.100503492072e-02 
  2.782540182265e-02 
  2.421853287043e-02 
  2.015720026580e-02 
  3.250456389508e-02 
  2.956076033335e-02 
  2.624094211869e-02 
  2.251013724303e-02 
  3.167847477704e-02 
  2.868995029231e-02 
  2.535276559395e-02 
  3.135833662246e-02 
  2.842844790192e-02 
  3.153363586407e-02 
  6.246612507878e-02 
  6.070193140362e-02 
  5.911818735353e-02 
  5.764887392031e-02 
  5.623849235483e-02 
  5.485065749830e-02 
  6.117275417106e-02 
  5.960366129493e-02 
  5.812474996647e-02 
  5.669800952203e-02 
  5.528920213327e-02 
  5.996958143213e-02 
  5.853180176034e-02 
  5.713645563283e-02 
  5.575281862065e-02 
  5.889371636574e-02 
  5.755978965737e-02 
  5.620190909209e-02 
  5.792021203259e-02 
  5.653114775655e-02 
  5.644184791845e-02 
  5.852286150453e-02 
  5.091597392914e-02 
  5.091161669032e-02 
  5.098407865319e-02 
  5.129384295156e-02 
  5.368437539571e-02 
  5.276767894502e-02 
  5.108597957352e-02 
  5.117585158280e-02 
  5.127099323302e-02 
  5.097837507180e-02 
  5.114425623637e-02 
  5.137534955218e-02 
  5.127505563042e-02 
  5.144154062316e-02 
  5.052699205819e-02 
  5.092090619764e-02 
  5.448530978238e-02 
  5.168172810559e-02 
  5.445370867947e-02 
  5.376659899897e-02 
  6.569857693405e-02 
  6.461268113386e-02 
  6.370024059143e-02 
  6.294718248856e-02 
  6.225875509458e-02 
  6.112018720303e-02 
  6.625599086562e-02 
  6.507802911455e-02 
  6.409841017125e-02 
  6.330334900825e-02 
  6.255940900510e-02 
  6.668288612137e-02 
  6.542535034778e-02 
  6.439901044970e-02 
  6.357074014418e-02 
  6.696356413932e-02 
  6.565210345410e-02 
  6.459860312327e-02 
  6.709640871284e-02 
  6.575722450745e-02 
  6.708212043211e-02 
  6.569788601814e-02 
  6.530766282394e-02 
  6.478250772518e-02 
  6.412454210462e-02 
  6.334389048977e-02 
  6.246505366749e-02 
  6.355528511554e-02 
  6.309670107571e-02 
  6.254155509219e-02 
  6.189819421927e-02 
  6.117281441822e-02 
  6.171692130501e-02 
  6.119602903594e-02 
  6.061140090857e-02 
  5.996936581061e-02 
  6.008534458267e-02 
  5.951788118340e-02 
  5.889374484576e-02 
  5.848682519129e-02 
  5.791989760638e-02 
  5.644289159600e-02 
  5.797435721420e-02 
  5.940299048688e-02 
  6.119984519350e-02 
  6.352284600094e-02 
  6.653824092625e-02 
  7.037148759651e-02 
  5.844638480085e-02 
  6.001883808015e-02 
  6.208733717730e-02 
  6.483849632113e-02 
  6.839332871192e-02 
  5.881394355179e-02 
  6.058449810867e-02 
  6.299395444207e-02 
  6.618837513243e-02 
  5.905347170030e-02 
  6.105930339620e-02 
  6.379766637467e-02 
  5.909083044796e-02 
  6.128333560161e-02 
  5.871687277948e-02 
  7.037184710267e-02 
  6.653828715069e-02 
  6.352297105380e-02 
  6.119989461890e-02 
  5.940307653779e-02 
  5.797419050218e-02 
  6.849101556112e-02 
  6.527070052919e-02 
  6.271051524868e-02 
  6.067189645554e-02 
  5.901219916225e-02 
  6.671589758938e-02 
  6.403536476266e-02 
  6.183768697297e-02 
  6.001057491757e-02 
  6.513441957279e-02 
  6.286570807376e-02 
  6.093268814498e-02 
  6.372663695140e-02 
  6.175743912300e-02 
  6.246315553953e-02 
  7.816996676616e-02 
  7.719258160871e-02 
  7.589892808886e-02 
  7.430572215895e-02 
  7.244431020312e-02 
  7.037441339159e-02 
  7.373937258723e-02 
  7.273106637695e-02 
  7.149668555116e-02 
  7.006931715703e-02 
  6.849074898063e-02 
  7.002557848276e-02 
  6.905382479574e-02 
  6.794202906920e-02 
  6.671623172671e-02 
  6.700602133737e-02 
  6.611324166547e-02 
  6.513409535573e-02 
  6.453711590724e-02 
  6.372652617743e-02 
  6.246178805370e-02 
  6.643174699823e-02 
  6.658558335735e-02 
  6.504920246748e-02 