# vtk DataFile Version 2
NuDG++ 2D simulation
ASCII
DATASET UNSTRUCTURED_GRID

POINTS 7854 double
 -1.656250060000e-01  -2.000000030000e-01  0.0
 -1.725000054000e-01  -1.908888817000e-01  0.0
 -1.793750048000e-01  -1.817777604000e-01  0.0
 -1.862500042000e-01  -1.726666391000e-01  0.0
 -1.931250036000e-01  -1.635555178000e-01  0.0
 -2.000000030000e-01  -1.544443965000e-01  0.0
 -1.725000054000e-01  -2.000000030000e-01  0.0
 -1.793750048000e-01  -1.908888817000e-01  0.0
 -1.862500042000e-01  -1.817777604000e-01  0.0
 -1.931250036000e-01  -1.726666391000e-01  0.0
 -2.000000030000e-01  -1.635555178000e-01  0.0
 -1.793750048000e-01  -2.000000030000e-01  0.0
 -1.862500042000e-01  -1.908888817000e-01  0.0
 -1.931250036000e-01  -1.817777604000e-01  0.0
 -2.000000030000e-01  -1.726666391000e-01  0.0
 -1.862500042000e-01  -2.000000030000e-01  0.0
 -1.931250036000e-01  -1.908888817000e-01  0.0
 -2.000000030000e-01  -1.817777604000e-01  0.0
 -1.931250036000e-01  -2.000000030000e-01  0.0
 -2.000000030000e-01  -1.908888817000e-01  0.0
 -2.000000030000e-01  -2.000000030000e-01  0.0
 -6.428571790000e-02  -1.700000018000e-01  0.0
 -7.080357372400e-02  -1.760000020400e-01  0.0
 -7.732142954800e-02  -1.820000022800e-01  0.0
 -8.383928537200e-02  -1.880000025200e-01  0.0
 -9.035714119600e-02  -1.940000027600e-01  0.0
 -9.687499702000e-02  -2.000000030000e-01  0.0
 -6.392857432000e-02  -1.760000020400e-01  0.0
 -7.044643014400e-02  -1.820000022800e-01  0.0
 -7.696428596800e-02  -1.880000025200e-01  0.0
 -8.348214179200e-02  -1.940000027600e-01  0.0
 -8.999999761600e-02  -2.000000030000e-01  0.0
 -6.357143074000e-02  -1.820000022800e-01  0.0
 -7.008928656400e-02  -1.880000025200e-01  0.0
 -7.660714238800e-02  -1.940000027600e-01  0.0
 -8.312499821200e-02  -2.000000030000e-01  0.0
 -6.321428716000e-02  -1.880000025200e-01  0.0
 -6.973214298400e-02  -1.940000027600e-01  0.0
 -7.624999880800e-02  -2.000000030000e-01  0.0
 -6.285714358000e-02  -1.940000027600e-01  0.0
 -6.937499940400e-02  -2.000000030000e-01  0.0
 -6.250000000000e-02  -2.000000030000e-01  0.0
 -2.000000030000e-01  -1.544443965000e-01  0.0
 -1.900000036000e-01  -1.478412374800e-01  0.0
 -1.800000042000e-01  -1.412380784600e-01  0.0
 -1.700000048000e-01  -1.346349194400e-01  0.0
 -1.600000054000e-01  -1.280317604200e-01  0.0
 -1.500000060000e-01  -1.214286014000e-01  0.0
 -2.000000030000e-01  -1.453332975600e-01  0.0
 -1.900000036000e-01  -1.387301385400e-01  0.0
 -1.800000042000e-01  -1.321269795200e-01  0.0
 -1.700000048000e-01  -1.255238205000e-01  0.0
 -1.600000054000e-01  -1.189206614800e-01  0.0
 -2.000000030000e-01  -1.362221986200e-01  0.0
 -1.900000036000e-01  -1.296190396000e-01  0.0
 -1.800000042000e-01  -1.230158805800e-01  0.0
 -1.700000048000e-01  -1.164127215600e-01  0.0
 -2.000000030000e-01  -1.271110996800e-01  0.0
 -1.900000036000e-01  -1.205079406600e-01  0.0
 -1.800000042000e-01  -1.139047816400e-01  0.0
 -2.000000030000e-01  -1.180000007400e-01  0.0
 -1.900000036000e-01  -1.113968417200e-01  0.0
 -2.000000030000e-01  -1.088889018000e-01  0.0
 -1.500000060000e-01  -1.214286014000e-01  0.0
 -1.600000054000e-01  -1.280317604200e-01  0.0
 -1.700000048000e-01  -1.346349194400e-01  0.0
 -1.800000042000e-01  -1.412380784600e-01  0.0
 -1.900000036000e-01  -1.478412374800e-01  0.0
 -2.000000030000e-01  -1.544443965000e-01  0.0
 -1.500000060000e-01  -1.311428814800e-01  0.0
 -1.600000054000e-01  -1.377460405000e-01  0.0
 -1.700000048000e-01  -1.443491995200e-01  0.0
 -1.800000042000e-01  -1.509523585400e-01  0.0
 -1.900000036000e-01  -1.575555175600e-01  0.0
 -1.500000060000e-01  -1.408571615600e-01  0.0
 -1.600000054000e-01  -1.474603205800e-01  0.0
 -1.700000048000e-01  -1.540634796000e-01  0.0
 -1.800000042000e-01  -1.606666386200e-01  0.0
 -1.500000060000e-01  -1.505714416400e-01  0.0
 -1.600000054000e-01  -1.571746006600e-01  0.0
 -1.700000048000e-01  -1.637777596800e-01  0.0
 -1.500000060000e-01  -1.602857217200e-01  0.0
 -1.600000054000e-01  -1.668888807400e-01  0.0
 -1.500000060000e-01  -1.700000018000e-01  0.0
 -1.500000060000e-01  -7.285714149000e-02  0.0
 -1.600000054000e-01  -8.006349355200e-02  0.0
 -1.700000048000e-01  -8.726984561400e-02  0.0
 -1.800000042000e-01  -9.447619767600e-02  0.0
 -1.900000036000e-01  -1.016825497380e-01  0.0
 -2.000000030000e-01  -1.088889018000e-01  0.0
 -1.500000060000e-01  -8.257143347200e-02  0.0
 -1.600000054000e-01  -8.977778553400e-02  0.0
 -1.700000048000e-01  -9.698413759600e-02  0.0
 -1.800000042000e-01  -1.041904896580e-01  0.0
 -1.900000036000e-01  -1.113968417200e-01  0.0
 -1.500000060000e-01  -9.228572545400e-02  0.0
 -1.600000054000e-01  -9.949207751600e-02  0.0
 -1.700000048000e-01  -1.066984295780e-01  0.0
 -1.800000042000e-01  -1.139047816400e-01  0.0
 -1.500000060000e-01  -1.020000174360e-01  0.0
 -1.600000054000e-01  -1.092063694980e-01  0.0
 -1.700000048000e-01  -1.164127215600e-01  0.0
 -1.500000060000e-01  -1.117143094180e-01  0.0
 -1.600000054000e-01  -1.189206614800e-01  0.0
 -1.500000060000e-01  -1.214286014000e-01  0.0
  1.832975030000e+00  -4.625000060000e-02  0.0
  1.841380024000e+00  -7.700000108000e-02  0.0
  1.849785018000e+00  -1.077500015600e-01  0.0
  1.858190012000e+00  -1.385000020400e-01  0.0
  1.866595006000e+00  -1.692500025200e-01  0.0
  1.875000000000e+00  -2.000000030000e-01  0.0
  1.866380024000e+00  -5.649999976400e-02  0.0
  1.874785018000e+00  -8.725000024400e-02  0.0
  1.883190012000e+00  -1.180000007240e-01  0.0
  1.891595006000e+00  -1.487500012040e-01  0.0
  1.900000000000e+00  -1.795000016840e-01  0.0
  1.899785018000e+00  -6.674999892800e-02  0.0
  1.908190012000e+00  -9.749999940800e-02  0.0
  1.916595006000e+00  -1.282499998880e-01  0.0
  1.925000000000e+00  -1.590000003680e-01  0.0
  1.933190012000e+00  -7.699999809200e-02  0.0
  1.941595006000e+00  -1.077499985720e-01  0.0
  1.950000000000e+00  -1.384999990520e-01  0.0
  1.966595006000e+00  -8.724999725600e-02  0.0
  1.975000000000e+00  -1.179999977360e-01  0.0
  2.000000000000e+00  -9.749999642000e-02  0.0
 -1.500000060000e-01  -1.700000018000e-01  0.0
 -1.444000050800e-01  -1.630000025200e-01  0.0
 -1.388000041600e-01  -1.560000032400e-01  0.0
 -1.332000032400e-01  -1.490000039600e-01  0.0
 -1.276000023200e-01  -1.420000046800e-01  0.0
 -1.220000014000e-01  -1.350000054000e-01  0.0
 -1.500000060000e-01  -1.602857217200e-01  0.0
 -1.444000050800e-01  -1.532857224400e-01  0.0
 -1.388000041600e-01  -1.462857231600e-01  0.0
 -1.332000032400e-01  -1.392857238800e-01  0.0
 -1.276000023200e-01  -1.322857246000e-01  0.0
 -1.500000060000e-01  -1.505714416400e-01  0.0
 -1.444000050800e-01  -1.435714423600e-01  0.0
 -1.388000041600e-01  -1.365714430800e-01  0.0
 -1.332000032400e-01  -1.295714438000e-01  0.0
 -1.500000060000e-01  -1.408571615600e-01  0.0
 -1.444000050800e-01  -1.338571622800e-01  0.0
 -1.388000041600e-01  -1.268571630000e-01  0.0
 -1.500000060000e-01  -1.311428814800e-01  0.0
 -1.444000050800e-01  -1.241428822000e-01  0.0
 -1.500000060000e-01  -1.214286014000e-01  0.0
  2.849999964000e-01  -2.333333530000e-02  0.0
  2.844999968800e-01  -4.666666836000e-02  0.0
  2.839999973600e-01  -7.000000142000e-02  0.0
  2.834999978400e-01  -9.333333448000e-02  0.0
  2.829999983200e-01  -1.166666675400e-01  0.0
  2.824999988000e-01  -1.400000006000e-01  0.0
  2.979999959200e-01  -3.266666830000e-02  0.0
  2.974999964000e-01  -5.600000136000e-02  0.0
  2.969999968800e-01  -7.933333442000e-02  0.0
  2.964999973600e-01  -1.026666674800e-01  0.0
  2.959999978400e-01  -1.260000005400e-01  0.0
  3.109999954400e-01  -4.200000130000e-02  0.0
  3.104999959200e-01  -6.533333436000e-02  0.0
  3.099999964000e-01  -8.866666742000e-02  0.0
  3.094999968800e-01  -1.120000004800e-01  0.0
  3.239999949600e-01  -5.133333430000e-02  0.0
  3.234999954400e-01  -7.466666736000e-02  0.0
  3.229999959200e-01  -9.800000042000e-02  0.0
  3.369999944800e-01  -6.066666730000e-02  0.0
  3.364999949600e-01  -8.400000036000e-02  0.0
  3.499999940000e-01  -7.000000030000e-02  0.0
 -1.071429029000e-01  -1.700000018000e-01  0.0
 -9.857146590000e-02  -1.700000018000e-01  0.0
 -9.000002890000e-02  -1.700000018000e-01  0.0
 -8.142859190000e-02  -1.700000018000e-01  0.0
 -7.285715490000e-02  -1.700000018000e-01  0.0
 -6.428571790000e-02  -1.700000018000e-01  0.0
 -1.037143230360e-01  -1.630000025200e-01  0.0
 -9.514288603600e-02  -1.630000025200e-01  0.0
 -8.657144903600e-02  -1.630000025200e-01  0.0
 -7.800001203600e-02  -1.630000025200e-01  0.0
 -6.942857503600e-02  -1.630000025200e-01  0.0
 -1.002857431720e-01  -1.560000032400e-01  0.0
 -9.171430617200e-02  -1.560000032400e-01  0.0
 -8.314286917200e-02  -1.560000032400e-01  0.0
 -7.457143217200e-02  -1.560000032400e-01  0.0
 -9.685716330800e-02  -1.490000039600e-01  0.0
 -8.828572630800e-02  -1.490000039600e-01  0.0
 -7.971428930800e-02  -1.490000039600e-01  0.0
 -9.342858344400e-02  -1.420000046800e-01  0.0
 -8.485714644400e-02  -1.420000046800e-01  0.0
 -9.000000358000e-02  -1.350000054000e-01  0.0
 -1.312499940000e-01  -2.000000030000e-01  0.0
 -1.264285757800e-01  -1.940000027600e-01  0.0
 -1.216071575600e-01  -1.880000025200e-01  0.0
 -1.167857393400e-01  -1.820000022800e-01  0.0
 -1.119643211200e-01  -1.760000020400e-01  0.0
 -1.071429029000e-01  -1.700000018000e-01  0.0
 -1.349999964000e-01  -1.940000027600e-01  0.0
 -1.301785781800e-01  -1.880000025200e-01  0.0
 -1.253571599600e-01  -1.820000022800e-01  0.0
 -1.205357417400e-01  -1.760000020400e-01  0.0
 -1.157143235200e-01  -1.700000018000e-01  0.0
 -1.387499988000e-01  -1.880000025200e-01  0.0
 -1.339285805800e-01  -1.820000022800e-01  0.0
 -1.291071623600e-01  -1.760000020400e-01  0.0
 -1.242857441400e-01  -1.700000018000e-01  0.0
 -1.425000012000e-01  -1.820000022800e-01  0.0
 -1.376785829800e-01  -1.760000020400e-01  0.0
 -1.328571647600e-01  -1.700000018000e-01  0.0
 -1.462500036000e-01  -1.760000020400e-01  0.0
 -1.414285853800e-01  -1.700000018000e-01  0.0
 -1.500000060000e-01  -1.700000018000e-01  0.0
[...]
POINT_DATA 7854
SCALARS field1 double 1
LOOKUP_TABLE default
  3.320600435727e-06 
  9.416210151088e-03 
  1.028035932630e-02 
  1.024186819899e-02 
  1.121325929939e-02 
  1.310084615384e-02 
 -4.124918737731e-06 
  7.849950544698e-03 
  8.432085498770e-03 
  8.889337672888e-03 
  1.073341156861e-02 
  7.277508406618e-07 
  5.932314069812e-03 
  6.627693037130e-03 
  8.252939794259e-03 
  1.384270502852e-05 
  3.937794256978e-03 
  5.636908158361e-03 
 -2.064919149315e-06 
  2.874920300616e-03 
  4.220326025371e-06 
  2.490219833103e-02 
  2.432065321441e-02 
  2.332868970583e-02 
  2.090438570729e-02 
  1.456107919263e-02 
 -1.254502861089e-06 
  2.474044709025e-02 
  2.375983793843e-02 
  2.133031517668e-02 
  1.488134435174e-02 
 -4.215209895034e-07 
  2.416381943548e-02 
  2.172593273315e-02 
  1.518437862727e-02 
 -4.765931369781e-07 
  2.209572671630e-02 
  1.546760781366e-02 
 -4.744482749536e-07 
  1.572972918481e-02 
 -3.369683729067e-07 
 -6.009493664566e-07 
  1.309456295366e-02 
  1.517134475186e-02 
  1.727106892937e-02 
  1.898615399667e-02 
  2.035418415874e-02 
  2.147433317971e-02 
  1.531743635131e-02 
  1.711900500657e-02 
  1.886637996574e-02 
  2.027926444224e-02 
  2.142403004611e-02 
  1.741465843957e-02 
  1.897553680958e-02 
  2.037755920640e-02 
  2.152258353201e-02 
  1.937810237520e-02 
  2.070959987825e-02 
  2.181529085097e-02 
  2.121202160187e-02 
  2.233757554678e-02 
  2.291283349309e-02 
  2.147549814021e-02 
  2.035420968990e-02 
  1.898693909855e-02 
  1.727030220290e-02 
  1.517259947795e-02 
  1.309532494491e-02 
  2.054258035437e-02 
  1.923003500688e-02 
  1.759766613127e-02 
  1.551436843999e-02 
  1.300945756930e-02 
  1.963780051632e-02 
  1.811739508856e-02 
  1.619625264482e-02 
  1.376233880336e-02 
  1.876674931103e-02 
  1.703486288786e-02 
  1.484340229579e-02 
  1.795915974206e-02 
  1.604186658960e-02 
  1.725299258466e-02 
  2.504339916056e-02 
  2.505071756160e-02 
  2.491897114690e-02 
  2.456675548441e-02 
  2.393561656558e-02 
  2.291442420597e-02 
  2.446064081773e-02 
  2.428251077639e-02 
  2.389359012113e-02 
  2.325265194022e-02 
  2.233690894809e-02 
  2.384309956581e-02 
  2.343066228803e-02 
  2.275687881922e-02 
  2.181559259370e-02 
  2.315985586133e-02 
  2.248253193451e-02 
  2.152167784142e-02 
  2.237539940713e-02 
  2.142361489058e-02 
  2.147470368288e-02 
  2.547463779093e-02 
  2.160156651782e-02 
  2.222488554078e-02 
  2.143724479175e-02 
  2.394538276006e-02 
  7.720750400751e-04 
  2.254810299540e-02 
  2.275057581609e-02 
  2.210979784762e-02 
  2.179212481498e-02 
  2.175522087234e-02 
  2.256609948440e-02 
  2.265815446214e-02 
  2.191975014359e-02 
  2.212106376278e-02 
  2.241778553929e-02 
  2.234995162364e-02 
  2.179772880641e-02 
  2.282832338727e-02 
  2.148953044299e-02 
  2.366852316686e-02 
  1.725206799537e-02 
  1.841799821727e-02 
  1.946976464647e-02 
  2.040449602887e-02 
  2.124589494429e-02 
  2.200939877879e-02 
  1.795905891351e-02 
  1.910059965633e-02 
  2.010941713774e-02 
  2.100774868121e-02 
  2.179755816827e-02 
  1.876741863394e-02 
  1.985227079929e-02 
  2.080306062008e-02 
  2.163732194953e-02 
  1.963870159818e-02 
  2.064642460528e-02 
  2.151932417711e-02 
  2.054348583736e-02 
  2.146227221357e-02 
  2.147591552040e-02 
  2.289833138214e-02 
  2.239973830773e-02 
  2.261525142026e-02 
  2.274150954611e-02 
  2.266324105945e-02 
  2.400467704681e-02 
  2.257290637086e-02 
  2.249617712588e-02 
  2.266171793198e-02 
  2.267929713029e-02 
  2.280447970922e-02 
  2.255525642795e-02 
  2.261024297494e-02 
  2.266677221325e-02 
  2.266485551084e-02 
  2.264223634574e-02 
  2.266230409474e-02 
  2.262028240515e-02 
  2.261185934648e-02 
  2.275319871611e-02 
  2.229674903932e-02 
  2.184326084779e-02 
  2.254720836275e-02 
  2.320048225022e-02 
  2.381177955287e-02 
  2.438078825886e-02 
  2.490580746980e-02 
  2.230638976360e-02 
  2.296835876281e-02 
  2.359141349988e-02 
  2.417988783673e-02 
  2.473190836833e-02 
  2.275377380369e-02 
  2.338021654426e-02 
  2.397789788523e-02 
  2.455084934920e-02 
  2.319734007196e-02 
  2.379406794728e-02 
  2.437534834345e-02 
  2.363010361263e-02 
  2.420728143807e-02 
  2.405424726945e-02 
 -3.533947809879e-06 
  1.243419771130e-02 
  1.798024768556e-02 
  2.020822412048e-02 
  2.120425386395e-02 
  2.184403500917e-02 
  1.177727157789e-02 
  1.712278322766e-02 
  1.934659960248e-02 
  2.038719381968e-02 
  2.109002341475e-02 
  1.615588643433e-02 
  1.838387255456e-02 
  1.949040084605e-02 
  2.026609676361e-02 
  1.729632032816e-02 
  1.849309927643e-02 
  1.936260782626e-02 
  1.737378534283e-02 
  1.836452578933e-02 
  1.724909511104e-02 
  2.200732531554e-02 
  2.240838416414e-02 
  2.281392490635e-02 
  2.322229222416e-02 
  2.363494648422e-02 
  2.405372305802e-02 
  2.242251461477e-02 
  2.278091637705e-02 
  2.314945319273e-02 
  2.352920130072e-02 
  2.392077651532e-02 
  2.280747392891e-02 
  2.312225547116e-02 
  2.345576765025e-02 
  2.380964121278e-02 
  2.315218882179e-02 
  2.342473732242e-02 
  2.372502443424e-02 
  2.344577045841e-02 
  2.367852532526e-02 
  2.367523363255e-02 
  2.405362692078e-02 
  2.363501966576e-02 
  2.322233295927e-02 
  2.281384908044e-02 
  2.240846938391e-02 
  2.200735995849e-02 
  2.363011726908e-02 
  2.319728622796e-02 
  2.275960935878e-02 
  2.231711854560e-02 
  2.186413866902e-02 
  2.319696553835e-02 
  2.273953219518e-02 
  2.226960098746e-02 
  2.178567172726e-02 
  2.275366997877e-02 
  2.226706512899e-02 
  2.175987929027e-02 
  2.230623139345e-02 
  2.178358218686e-02 
  2.184393396271e-02 
  2.544828532082e-02 
  2.495129337883e-02 
  2.454864352591e-02 
  2.421461885534e-02 
  2.393040664804e-02 
  2.367531417169e-02 
  2.531203249837e-02 
  2.482201263981e-02 
  2.439703568735e-02 
  2.402023064839e-02 
  2.367844139840e-02 
  2.508095487080e-02 
  2.459007271856e-02 
  2.414247365216e-02 
  2.372512050833e-02 
  2.478036552525e-02 
  2.428348243495e-02 
  2.380972095950e-02 
  2.443244040104e-02 
  2.392074723889e-02 
  2.405434498718e-02 
  2.200812740222e-02 
  2.242265513202e-02 
  2.280749778307e-02 
  2.315237077485e-02 
  2.344587714408e-02 
  2.367490302684e-02 
  2.179804696609e-02 
  2.226220311797e-02 
  2.268059850886e-02 
  2.305221691758e-02 
  2.336888638360e-02 
  2.163694614619e-02 
  2.214387964331e-02 
  2.260522468696e-02 
  2.301024754149e-02 
  2.151942915259e-02 
  2.208135522230e-02 
  2.259137380147e-02 
  2.146221411686e-02 
  2.208664616312e-02 
  2.147632573736e-02 
  2.544794430201e-02 
  2.531206493668e-02 
  2.508090160179e-02 
  2.478037444094e-02 
  2.443225467340e-02 
  2.405522692611e-02 
  2.584615487191e-02 
  2.562400781232e-02 
  2.533151093954e-02 
  2.499446765313e-02 
  2.462742223660e-02 
  2.623142046193e-02 
  2.592419910248e-02 
  2.557612006320e-02 
  2.520680925071e-02 
  2.658649944853e-02 
  2.620293495802e-02 
  2.580721934564e-02 
  2.690252837133e-02 
  2.645307734807e-02 
  2.716744784457e-02 
  2.184418161793e-02 
  2.178368080277e-02 
  2.176008369063e-02 
  2.178582174694e-02 
  2.186370147821e-02 
  2.200845373911e-02 
  2.109025389306e-02 
  2.104133287945e-02 
  2.104307954148e-02 
  2.111118375345e-02 
  2.124626290187e-02 
  2.026611293662e-02 
  2.024057991086e-02 
  2.028217161218e-02 
  2.040478454847e-02 
  1.936294339833e-02 
  1.937155875684e-02 
  1.946944602431e-02 
  1.836436940096e-02 
  1.841814374575e-02 
  1.725077004791e-02 
 -4.438102213833e-07 
 -4.972895007056e-07 
 -4.187864405716e-07 
 -5.571699145460e-07 
 -4.761109396920e-07 
 -1.445569060150e-06 
  1.715337389679e-02 
  1.711992347320e-02 
  1.701165730765e-02 
  1.683974616755e-02 
  1.662588272049e-02 
  2.410872142007e-02 
  2.404780772188e-02 
  2.387509245543e-02 
  2.361474149306e-02 
  2.639088978274e-02 
  2.629013902539e-02 
  2.607683379254e-02 
  2.703304258365e-02 
  2.688758253496e-02 
  2.721689647927e-02 
  2.504106498708e-02 
  2.446060720549e-02 
  2.384300957675e-02 
  2.315968780018e-02 
  2.237466690525e-02 
  2.147595907738e-02 
  2.446447234029e-02 
  2.398328570565e-02 
  2.343859565880e-02 
  2.280980651053e-02 
  2.208675537813e-02 
  2.406527468932e-02 
  2.365475721747e-02 
  2.316212503154e-02 
  2.259137180407e-02 
  2.381230955085e-02 
  2.345031229768e-02 
  2.301011993522e-02 
  2.368558662533e-02 
  2.336898070713e-02 
  2.367442276540e-02 
  2.946505209589e-02 
  2.869546630862e-02 
  2.757908873672e-02 
  2.656937970631e-02 
  2.572199427733e-02 
  2.504195865081e-02 
  2.963314289453e-02 
  2.841606515702e-02 
  2.727669835243e-02 
  2.632695050082e-02 
  2.552126016693e-02 
  2.912354927160e-02 
  2.787399409160e-02 
  2.678965400206e-02 
  2.585962644476e-02 
  2.836580525555e-02 
  2.716163754910e-02 
  2.609284590125e-02 
  2.745840145601e-02 
  2.628437166015e-02 
  2.648833808474e-02 
  2.946127836593e-02 
  2.841423547559e-02 
  2.723525507341e-02 
  2.592569576915e-02 
  2.448506177423e-02 
  2.291354382978e-02 
  2.869624806850e-02 
  2.769272693490e-02 
  2.655907194265e-02 
  2.530995663384e-02 
  2.393575903427e-02 
  2.757773122031e-02 
  2.667282467061e-02 
  2.567102628634e-02 
  2.456663114396e-02 
  2.657092664775e-02 
  2.579129799782e-02 
  2.491923207556e-02 
  2.572101170463e-02 
  2.504979363047e-02 
  2.504626503860e-02 
  2.946201791774e-02 
  2.963385434187e-02 
  2.912283731713e-02 
  2.836618325627e-02 
  2.745726853428e-02 
  2.649259999210e-02 
  3.037757764739e-02 
  3.038286622459e-02 
  2.965915337392e-02 
  2.873894972437e-02 
  2.770130034146e-02 
  3.116299207228e-02 
  3.100299759257e-02 
  3.010051324610e-02 
  2.903393574804e-02 
  3.181816431640e-02 
  3.151333486192e-02 
  3.045324102813e-02 
  3.234302481962e-02 
  3.189024707658e-02 
  3.273492052822e-02 
  2.648401224872e-02 
  2.628364785962e-02 
  2.609185388459e-02 
  2.585892020127e-02 
  2.551987206260e-02 
  2.503973279144e-02 
  2.543488309977e-02 
  2.535835182922e-02 
  2.526900109642e-02 
  2.513473193303e-02 
  2.490296639456e-02 
  2.445815887722e-02 
  2.450656724416e-02 
  2.453865853051e-02 
  2.452344567806e-02 
  2.352707786886e-02 
  2.372329058803e-02 
  2.390367511528e-02 
  2.264120474870e-02 
  2.302643806985e-02 
  2.179517467055e-02 
  2.111003559925e-02 
  2.237115524458e-02 
  2.351781690159e-02 
  2.458217560518e-02 
  2.556144123428e-02 
  2.648239152784e-02 
  2.104023550096e-02 
  2.233393636821e-02 
  2.348414547147e-02 
  2.451195257491e-02 
  2.543504231330e-02 
  2.107760131014e-02 
  2.237431877498e-02 
  2.348903976725e-02 
  2.445781497575e-02 
  2.122749135952e-02 
  2.248101428829e-02 
  2.352742572055e-02 
  2.147583163301e-02 
  2.264096961575e-02 
  2.179695241552e-02 
  2.648625950702e-02 
  2.659680256323e-02 
  2.666120226907e-02 
  2.668746110266e-02 
  2.670290572588e-02 
  2.672588076037e-02 
  2.770253764681e-02 
  2.788390956259e-02 
  2.797611506191e-02 
  2.801798423541e-02 
  2.799633008296e-02 
  2.903186342685e-02 
  2.923517700966e-02 
  2.935861687955e-02 
  2.940103795170e-02 
  3.045541446203e-02 
  3.070661677496e-02 
  3.084011824921e-02 
  3.188916440359e-02 
  3.216788475711e-02 
  3.274027042856e-02 
  2.503844638047e-02 
  2.459723402088e-02 
  2.420868596240e-02 
  2.388451744720e-02 
  2.363953820204e-02 
  2.352251525006e-02 
  2.490313819517e-02 
  2.435844268728e-02 
  2.387152173457e-02 
  2.344688950098e-02 
  2.310770740113e-02 
  2.452316381574e-02 
  2.387570176083e-02 
  2.326777918420e-02 
  2.270695722769e-02 
  2.390401947482e-02 
  2.312130063271e-02 
  2.233931092501e-02 
  2.302621143482e-02 
  2.203177981646e-02 
  2.179705553940e-02 
  2.381880143799e-02 
  2.289355054794e-02 
  2.267002293178e-02 
  2.266229048084e-02 
  2.291408058440e-02 
  2.383399577842e-02 
  2.254057512597e-02 
  2.276275601434e-02 
  2.275743298940e-02 
  2.285411290829e-02 
  2.288354007466e-02 
  2.258183697596e-02 
  2.240065706775e-02 
  2.237322211372e-02 
  2.197731769021e-02 
  2.256733506484e-02 
  2.259866657300e-02 
  2.243418707750e-02 
  2.048966136764e-02 
  2.264232054255e-02 
  3.934810103282e-04 
  2.071088680372e-02 
  2.163355212502e-02 
  2.231582536613e-02 
  2.283473019448e-02 
  2.322659157793e-02 
  2.352513245575e-02 
  2.168940369877e-02 
  2.238502239715e-02 
  2.289992417742e-02 
  2.328718415159e-02 
  2.356936659939e-02 
  2.273369391162e-02 
  2.318995775036e-02 
  2.352367000946e-02 
  2.376874235922e-02 
  2.380982093973e-02 
  2.402181600812e-02 
  2.416765288809e-02 
  2.488160412060e-02 
  2.485342958622e-02 
  2.591363412354e-02 
  2.352209544266e-02 
  2.363960073145e-02 
  2.388441777755e-02 
  2.420875584199e-02 
  2.459710740764e-02 
  2.503897469558e-02 
  2.383918157024e-02 
  2.385907384110e-02 
  2.399401901707e-02 
  2.420273326880e-02 
  2.446467650091e-02 
  2.399421867900e-02 
  2.393151556705e-02 
  2.396667918335e-02 
  2.406475242926e-02 
  2.400831390693e-02 
  2.387073906815e-02 
  2.381221134811e-02 
  2.390075703346e-02 
  2.368534482945e-02 
  2.367499430827e-02 
  9.391063997966e-03 
  1.129303648866e-02 
  1.290134235459e-02 
  1.427600747705e-02 
  1.546724431264e-02 
  1.652367378221e-02 
  1.021524796061e-02 
  1.201087350581e-02 
  1.352365480716e-02 
  1.481367217756e-02 
  1.592304029729e-02 
  1.125007330292e-02 
  1.294295188526e-02 
  1.432477160942e-02 
  1.549582594567e-02 
  1.252375439535e-02 
  1.406610614075e-02 
  1.528557720990e-02 
  1.402714187829e-02 
  1.535822737068e-02 
  1.570624337260e-02 
  1.652249188149e-02 
  1.795590145728e-02 
  1.915727068707e-02 
  2.016958856650e-02 
  2.104157150848e-02 
  2.180016769484e-02 
  1.707845631040e-02 
  1.840253841400e-02 
  1.950112984277e-02 
  2.043102386072e-02 
  2.123082434032e-02 
  1.781755342290e-02 
  1.897507797163e-02 
  1.994243032358e-02 
  2.076767432198e-02 
  1.869960599408e-02 
  1.965574361016e-02 
  2.046607390746e-02 
  1.967782078592e-02 
  2.041622444531e-02 
  2.071191486911e-02 
  2.070962341806e-02 
  2.011838679044e-02 
  1.938190351637e-02 
  1.848167009908e-02 
  1.731389089827e-02 
  1.570658733555e-02 
  1.967709971797e-02 
  1.889555188927e-02 
  1.795966665034e-02 
  1.681193548452e-02 
  1.535826465458e-02 
  1.869945502057e-02 
  1.775865096651e-02 
  1.663823561093e-02 
  1.528545616833e-02 
  1.781719441922e-02 
  1.675367750411e-02 
  1.549568246596e-02 
  1.707786824208e-02 
  1.592314215186e-02 
  1.652356583815e-02 
  1.652260634086e-02 
  1.713170790751e-02 
  1.801911003538e-02 
  1.903101206089e-02 
  2.008539657214e-02 
  2.111240715530e-02 
  1.795607930968e-02 
  1.848702298911e-02 
  1.923891863734e-02 
  2.011473545147e-02 
  2.104015884731e-02 
  1.915750189732e-02 
  1.963077337067e-02 
  2.029791939725e-02 
  2.107758277993e-02 
  2.016937171826e-02 
  2.061649371946e-02 
  2.122768305361e-02 
  2.104181495352e-02 
  2.147612352202e-02 
  2.179863408652e-02 
  2.544781614589e-02 
  2.565046029426e-02 
  2.581368761561e-02 
  2.592897566670e-02 
  2.597707670100e-02 
  2.591419610489e-02 
  2.508908537382e-02 
  2.517267892960e-02 
  2.517949193779e-02 
  2.508422147122e-02 
  2.485334017218e-02 
  2.469956904563e-02 
  2.465036716683e-02 
  2.448595318054e-02 
  2.416780478207e-02 
  2.429626912991e-02 
  2.410797355522e-02 
  2.376861191909e-02 
  2.389585169861e-02 
  2.356944369140e-02 
  2.352467667211e-02 
  2.071295885444e-02 
  2.041599895101e-02 
  2.046633327851e-02 
  2.076751449108e-02 
  2.123099215697e-02 
  2.179940713406e-02 
  2.163335142993e-02 
  2.136724705085e-02 
  2.139689377270e-02 
  2.163769806764e-02 
  2.203233351838e-02 
  2.231612546990e-02 
  2.210300444435e-02 
  2.212871254702e-02 
  2.233983730248e-02 
  2.283462745696e-02 
  2.267062987705e-02 
  2.270740464746e-02 
  2.322679151556e-02 
  2.310804231542e-02 
  2.352380449203e-02 
  2.544851307224e-02 
  2.508884837426e-02 
  2.469942059513e-02 
  2.429596948885e-02 
  2.389557601967e-02 
  2.352302457926e-02 
  2.495126781148e-02 
  2.467517555511e-02 
  2.438825094898e-02 
  2.410403288440e-02 
  2.383903008636e-02 
  2.454873620938e-02 
  2.435467322615e-02 
  2.416687976901e-02 
  2.399447051745e-02 
  2.421455462825e-02 
  2.410268875010e-02 
  2.400838873754e-02 
  2.393054105157e-02 
  2.390099663233e-02 
  2.367490690201e-02 
  1.652287580661e-02 
  1.546752486050e-02 
  1.427594000442e-02 
  1.290105905460e-02 
  1.129313701799e-02 
  9.391467242570e-03 
  1.581353879789e-02 
  1.466622829817e-02 
  1.335259765597e-02 
  1.183705712331e-02 
  1.008548289581e-02 
  1.528099357323e-02 
  1.406565186295e-02 
  1.267996479762e-02 
  1.108994033044e-02 
  1.494219476380e-02 
  1.370273460696e-02 
  1.230184578754e-02 
  1.481118660753e-02 
  1.359421024133e-02 
  1.488054865742e-02 
  2.716786262658e-02 
  2.645295171408e-02 
  2.580735515131e-02 
  2.520666460297e-02 
  2.462745258956e-02 
  2.405494096251e-02 
  2.661650517622e-02 
  2.597700055570e-02 
  2.537369404900e-02 
  2.478828094375e-02 
  2.420753629954e-02 
  2.610551562854e-02 
  2.551821328483e-02 
  2.494513368615e-02 
  2.437546349130e-02 
  2.564682015272e-02 
  2.510070443478e-02 
  2.455103568486e-02 
  2.525272406071e-02 
  2.473222227499e-02 
  2.490689108017e-02 
  2.533051207449e-02 
  2.249676538678e-02 
  2.251819043388e-02 
  2.240589256209e-02 
  2.275174963042e-02 
  2.379843261773e-02 
  2.262902159629e-02 
  2.226053068102e-02 
  2.233919533701e-02 
  2.232187745994e-02 
  2.285071059305e-02 
  2.227418698313e-02 
  2.239408428145e-02 
  2.236519247468e-02 
  2.262560963980e-02 
  2.229583507772e-02 
  2.222254284467e-02 
  2.261528072105e-02 
  2.254091409127e-02 
  2.305682816567e-02 
  2.297665095333e-02 
  2.841444825546e-02 
  2.795910566047e-02 
  2.757558361164e-02 
  2.726504961549e-02 
  2.702379243811e-02 
  2.682792414701e-02 
  2.863293114619e-02 
  2.814020502825e-02 
  2.773172874604e-02 
  2.740759681314e-02 
  2.715570357300e-02 
  2.879835764050e-02 
  2.827503692994e-02 
  2.784985245384e-02 
  2.751458049617e-02 
  2.890477802371e-02 
  2.836187007981e-02 
  2.792765714836e-02 
  2.895313190178e-02 
  2.840165458520e-02 
  2.894128588528e-02 
  2.841398587831e-02 
  2.826711767622e-02 
  2.806635821929e-02 
  2.781276050053e-02 
  2.751006473848e-02 
  2.716690710130e-02 
  2.753874630602e-02 
  2.736209263213e-02 
  2.714738232120e-02 
  2.689768309842e-02 
  2.661657592738e-02 
  2.678355638257e-02 
  2.658217958825e-02 
  2.635521734408e-02 
  2.610531160879e-02 
  2.611559788071e-02 
  2.589151410925e-02 
  2.564689188649e-02 
  2.550175754003e-02 
  2.525249682653e-02 
  2.490759931808e-02 
  2.544729288455e-02 
  2.602448765645e-02 
  2.675071430721e-02 
  2.769381645497e-02 
  2.893248863269e-02 
  3.057097379439e-02 
  2.565035521415e-02 
  2.628768703542e-02 
  2.712843048407e-02 
  2.826213828925e-02 
  2.979304462797e-02 
  2.581344227363e-02 
  2.653483474804e-02 
  2.753098568332e-02 
  2.892228406589e-02 
  2.592885255483e-02 
  2.676159783627e-02 
  2.796994072420e-02 
  2.597711561547e-02 
  2.695796375413e-02 
  2.591336921767e-02 
  3.057099350341e-02 
  2.893256863084e-02 
  2.769386359266e-02 
  2.675078139994e-02 
  2.602454359033e-02 
  2.544731275933e-02 
  2.969249116760e-02 
  2.837828900440e-02 
  2.734216931338e-02 
  2.651786285778e-02 
  2.584585556800e-02 
  2.894029044792e-02 
  2.785749413210e-02 
  2.696968169103e-02 
  2.623102587698e-02 
  2.828137764681e-02 
  2.736644483192e-02 
  2.658601567813e-02 
  2.769649467864e-02 
  2.690194905677e-02 
  2.716641797680e-02 
  3.363715313292e-02 
  3.326755630753e-02 
  3.276958193688e-02 
  3.214620950772e-02 
  3.140547356209e-02 
  3.057276363754e-02 
  3.175308292572e-02 
  3.136270204663e-02 
  3.087924119125e-02 
  3.031624451630e-02 
  2.969233951119e-02 
  3.023731920478e-02 
  2.985857066288e-02 
  2.942265416955e-02 
  2.894058314435e-02 
  2.901386535527e-02 
  2.866518732047e-02 
  2.828116906055e-02 
  2.801391008882e-02 
  2.769650570543e-02 
  2.716534065739e-02 
  3.236075679471e-02 
  3.111613206380e-02 
  2.952695704476e-02 