# vtk DataFile Version 2
NuDG++ 2D simulation
ASCII
DATASET UNSTRUCTURED_GRID

POINTS 7854 double
 -1.656250060000e-01  -2.000000030000e-01  0.0
 -1.725000054000e-01  -1.908888817000e-01  0.0
 -1.793750048000e-01  -1.817777604000e-01  0.0
 -1.862500042000e-01  -1.726666391000e-01  0.0
 -1.931250036000e-01  -1.635555178000e-01  0.0
 -2.000000030000e-01  -1.544443965000e-01  0.0
 -1.725000054000e-01  -2.000000030000e-01  0.0
 -1.793750048000e-01  -1.908888817000e-01  0.0
 -1.862500042000e-01  -1.817777604000e-01  0.0
 -1.931250036000e-01  -1.726666391000e-01  0.0
 -2.000000030000e-01  -1.635555178000e-01  0.0
 -1.793750048000e-01  -2.000000030000e-01  0.0
 -1.862500042000e-01  -1.908888817000e-01  0.0
 -1.931250036000e-01  -1.817777604000e-01  0.0
 -2.000000030000e-01  -1.726666391000e-01  0.0
 -1.862500042000e-01  -2.000000030000e-01  0.0
 -1.931250036000e-01  -1.908888817000e-01  0.0
 -2.000000030000e-01  -1.817777604000e-01  0.0
 -1.931250036000e-01  -2.000000030000e-01  0.0
 -2.000000030000e-01  -1.908888817000e-01  0.0
 -2.000000030000e-01  -2.000000030000e-01  0.0
 -6.428571790000e-02  -1.700000018000e-01  0.0
 -7.080357372400e-02  -1.760000020400e-01  0.0
 -7.732142954800e-02  -1.820000022800e-01  0.0
 -8.383928537200e-02  -1.880000025200e-01  0.0
 -9.035714119600e-02  -1.940000027600e-01  0.0
 -9.687499702000e-02  -2.000000030000e-01  0.0
 -6.392857432000e-02  -1.760000020400e-01  0.0
 -7.044643014400e-02  -1.820000022800e-01  0.0
 -7.696428596800e-02  -1.880000025200e-01  0.0
 -8.348214179200e-02  -1.940000027600e-01  0.0
 -8.999999761600e-02  -2.000000030000e-01  0.0
 -6.357143074000e-02  -1.820000022800e-01  0.0
 -7.008928656400e-02  -1.880000025200e-01  0.0
 -7.660714238800e-02  -1.940000027600e-01  0.0
 -8.312499821200e-02  -2.000000030000e-01  0.0
 -6.321428716000e-02  -1.880000025200e-01  0.0
 -6.973214298400e-02  -1.940000027600e-01  0.0
 -7.624999880800e-02  -2.000000030000e-01  0.0
 -6.285714358000e-02  -1.940000027600e-01  0.0
 -6.937499940400e-02  -2.000000030000e-01  0.0
 -6.250000000000e-02  -2.000000030000e-01  0.0
 -2.000000030000e-01  -1.544443965000e-01  0.0
 -1.900000036000e-01  -1.478412374800e-01  0.0
 -1.800000042000e-01  -1.412380784600e-01  0.0
 -1.700000048000e-01  -1.346349194400e-01  0.0
 -1.600000054000e-01  -1.280317604200e-01  0.0
 -1.500000060000e-01  -1.214286014000e-01  0.0
 -2.000000030000e-01  -1.453332975600e-01  0.0
 -1.900000036000e-01  -1.387301385400e-01  0.0
 -1.800000042000e-01  -1.321269795200e-01  0.0
 -1.700000048000e-01  -1.255238205000e-01  0.0
 -1.600000054000e-01  -1.189206614800e-01  0.0
 -2.000000030000e-01  -1.362221986200e-01  0.0
 -1.900000036000e-01  -1.296190396000e-01  0.0
 -1.800000042000e-01  -1.230158805800e-01  0.0
 -1.700000048000e-01  -1.164127215600e-01  0.0
 -2.000000030000e-01  -1.271110996800e-01  0.0
 -1.900000036000e-01  -1.205079406600e-01  0.0
 -1.800000042000e-01  -1.139047816400e-01  0.0
 -2.000000030000e-01  -1.180000007400e-01  0.0
 -1.900000036000e-01  -1.113968417200e-01  0.0
 -2.000000030000e-01  -1.088889018000e-01  0.0
 -1.500000060000e-01  -1.214286014000e-01  0.0
 -1.600000054000e-01  -1.280317604200e-01  0.0
 -1.700000048000e-01  -1.346349194400e-01  0.0
 -1.800000042000e-01  -1.412380784600e-01  0.0
 -1.900000036000e-01  -1.478412374800e-01  0.0
 -2.000000030000e-01  -1.544443965000e-01  0.0
 -1.500000060000e-01  -1.311428814800e-01  0.0
 -1.600000054000e-01  -1.377460405000e-01  0.0
 -1.700000048000e-01  -1.443491995200e-01  0.0
 -1.800000042000e-01  -1.509523585400e-01  0.0
 -1.900000036000e-01  -1.575555175600e-01  0.0
 -1.500000060000e-01  -1.408571615600e-01  0.0
 -1.600000054000e-01  -1.474603205800e-01  0.0
 -1.700000048000e-01  -1.540634796000e-01  0.0
 -1.800000042000e-01  -1.606666386200e-01  0.0
 -1.500000060000e-01  -1.505714416400e-01  0.0
 -1.600000054000e-01  -1.571746006600e-01  0.0
 -1.700000048000e-01  -1.637777596800e-01  0.0
 -1.500000060000e-01  -1.602857217200e-01  0.0
 -1.600000054000e-01  -1.668888807400e-01  0.0
 -1.500000060000e-01  -1.700000018000e-01  0.0
 -1.500000060000e-01  -7.285714149000e-02  0.0
 -1.600000054000e-01  -8.006349355200e-02  0.0
 -1.700000048000e-01  -8.726984561400e-02  0.0
 -1.800000042000e-01  -9.447619767600e-02  0.0
 -1.900000036000e-01  -1.016825497380e-01  0.0
 -2.000000030000e-01  -1.088889018000e-01  0.0
 -1.500000060000e-01  -8.257143347200e-02  0.0
 -1.600000054000e-01  -8.977778553400e-02  0.0
 -1.700000048000e-01  -9.698413759600e-02  0.0
 -1.800000042000e-01  -1.041904896580e-01  0.0
 -1.900000036000e-01  -1.113968417200e-01  0.0
 -1.500000060000e-01  -9.228572545400e-02  0.0
 -1.600000054000e-01  -9.949207751600e-02  0.0
 -1.700000048000e-01  -1.066984295780e-01  0.0
 -1.800000042000e-01  -1.139047816400e-01  0.0
 -1.500000060000e-01  -1.020000174360e-01  0.0
 -1.600000054000e-01  -1.092063694980e-01  0.0
 -1.700000048000e-01  -1.164127215600e-01  0.0
 -1.500000060000e-01  -1.117143094180e-01  0.0
 -1.600000054000e-01  -1.189206614800e-01  0.0
 -1.500000060000e-01  -1.214286014000e-01  0.0
  1.832975030000e+00  -4.625000060000e-02  0.0
  1.841380024000e+00  -7.700000108000e-02  0.0
  1.849785018000e+00  -1.077500015600e-01  0.0
  1.858190012000e+00  -1.385000020400e-01  0.0
  1.866595006000e+00  -1.692500025200e-01  0.0
  1.875000000000e+00  -2.000000030000e-01  0.0
  1.866380024000e+00  -5.649999976400e-02  0.0
  1.874785018000e+00  -8.725000024400e-02  0.0
  1.883190012000e+00  -1.180000007240e-01  0.0
  1.891595006000e+00  -1.487500012040e-01  0.0
  1.900000000000e+00  -1.795000016840e-01  0.0
  1.899785018000e+00  -6.674999892800e-02  0.0
  1.908190012000e+00  -9.749999940800e-02  0.0
  1.916595006000e+00  -1.282499998880e-01  0.0
  1.925000000000e+00  -1.590000003680e-01  0.0
  1.933190012000e+00  -7.699999809200e-02  0.0
  1.941595006000e+00  -1.077499985720e-01  0.0
  1.950000000000e+00  -1.384999990520e-01  0.0
  1.966595006000e+00  -8.724999725600e-02  0.0
  1.975000000000e+00  -1.179999977360e-01  0.0
  2.000000000000e+00  -9.749999642000e-02  0.0
 -1.500000060000e-01  -1.700000018000e-01  0.0
 -1.444000050800e-01  -1.630000025200e-01  0.0
 -1.388000041600e-01  -1.560000032400e-01  0.0
 -1.332000032400e-01  -1.490000039600e-01  0.0
 -1.276000023200e-01  -1.420000046800e-01  0.0
 -1.220000014000e-01  -1.350000054000e-01  0.0
 -1.500000060000e-01  -1.602857217200e-01  0.0
 -1.444000050800e-01  -1.532857224400e-01  0.0
 -1.388000041600e-01  -1.462857231600e-01  0.0
 -1.332000032400e-01  -1.392857238800e-01  0.0
 -1.276000023200e-01  -1.322857246000e-01  0.0
 -1.500000060000e-01  -1.505714416400e-01  0.0
 -1.444000050800e-01  -1.435714423600e-01  0.0
 -1.388000041600e-01  -1.365714430800e-01  0.0
 -1.332000032400e-01  -1.295714438000e-01  0.0
 -1.500000060000e-01  -1.408571615600e-01  0.0
 -1.444000050800e-01  -1.338571622800e-01  0.0
 -1.388000041600e-01  -1.268571630000e-01  0.0
 -1.500000060000e-01  -1.311428814800e-01  0.0
 -1.444000050800e-01  -1.241428822000e-01  0.0
 -1.500000060000e-01  -1.214286014000e-01  0.0
  2.849999964000e-01  -2.333333530000e-02  0.0
  2.844999968800e-01  -4.666666836000e-02  0.0
  2.839999973600e-01  -7.000000142000e-02  0.0
  2.834999978400e-01  -9.333333448000e-02  0.0
  2.829999983200e-01  -1.166666675400e-01  0.0
  2.824999988000e-01  -1.400000006000e-01  0.0
  2.979999959200e-01  -3.266666830000e-02  0.0
  2.974999964000e-01  -5.600000136000e-02  0.0
  2.969999968800e-01  -7.933333442000e-02  0.0
  2.964999973600e-01  -1.026666674800e-01  0.0
  2.959999978400e-01  -1.260000005400e-01  0.0
  3.109999954400e-01  -4.200000130000e-02  0.0
  3.104999959200e-01  -6.533333436000e-02  0.0
  3.099999964000e-01  -8.866666742000e-02  0.0
  3.094999968800e-01  -1.120000004800e-01  0.0
  3.239999949600e-01  -5.133333430000e-02  0.0
  3.234999954400e-01  -7.466666736000e-02  0.0
  3.229999959200e-01  -9.800000042000e-02  0.0
  3.369999944800e-01  -6.066666730000e-02  0.0
  3.364999949600e-01  -8.400000036000e-02  0.0
  3.499999940000e-01  -7.000000030000e-02  0.0
 -1.071429029000e-01  -1.700000018000e-01  0.0
 -9.857146590000e-02  -1.700000018000e-01  0.0
 -9.000002890000e-02  -1.700000018000e-01  0.0
 -8.142859190000e-02  -1.700000018000e-01  0.0
 -7.285715490000e-02  -1.700000018000e-01  0.0
 -6.428571790000e-02  -1.700000018000e-01  0.0
 -1.037143230360e-01  -1.630000025200e-01  0.0
 -9.514288603600e-02  -1.630000025200e-01  0.0
 -8.657144903600e-02  -1.630000025200e-01  0.0
 -7.800001203600e-02  -1.630000025200e-01  0.0
 -6.942857503600e-02  -1.630000025200e-01  0.0
 -1.002857431720e-01  -1.560000032400e-01  0.0
 -9.171430617200e-02  -1.560000032400e-01  0.0
 -8.314286917200e-02  -1.560000032400e-01  0.0
 -7.457143217200e-02  -1.560000032400e-01  0.0
 -9.685716330800e-02  -1.490000039600e-01  0.0
 -8.828572630800e-02  -1.490000039600e-01  0.0
 -7.971428930800e-02  -1.490000039600e-01  0.0
 -9.342858344400e-02  -1.420000046800e-01  0.0
 -8.485714644400e-02  -1.420000046800e-01  0.0
 -9.000000358000e-02  -1.350000054000e-01  0.0
 -1.312499940000e-01  -2.000000030000e-01  0.0
 -1.264285757800e-01  -1.940000027600e-01  0.0
 -1.216071575600e-01  -1.880000025200e-01  0.0
 -1.167857393400e-01  -1.820000022800e-01  0.0
 -1.119643211200e-01  -1.760000020400e-01  0.0
 -1.071429029000e-01  -1.700000018000e-01  0.0
 -1.349999964000e-01  -1.940000027600e-01  0.0
 -1.301785781800e-01  -1.880000025200e-01  0.0
 -1.253571599600e-01  -1.820000022800e-01  0.0
 -1.205357417400e-01  -1.760000020400e-01  0.0
 -1.157143235200e-01  -1.700000018000e-01  0.0
 -1.387499988000e-01  -1.880000025200e-01  0.0
 -1.339285805800e-01  -1.820000022800e-01  0.0
 -1.291071623600e-01  -1.760000020400e-01  0.0
 -1.242857441400e-01  -1.700000018000e-01  0.0
 -1.425000012000e-01  -1.820000022800e-01  0.0
 -1.376785829800e-01  -1.760000020400e-01  0.0
 -1.328571647600e-01  -1.700000018000e-01  0.0
 -1.462500036000e-01  -1.760000020400e-01  0.0
 -1.414285853800e-01  -1.700000018000e-01  0.0
 -1.500000060000e-01  -1.700000018000e-01  0.0
[...]
POINT_DATA 7854
SCALARS field1 double 1
LOOKUP_TABLE default
 -5.348964475809e-06 
  1.674647301062e-02 
  2.088863612732e-02 
  2.230205505907e-02 
  2.505355593110e-02 
  2.963404983625e-02 
 -2.785327008604e-06 
  1.379872798058e-02 
  1.727168322145e-02 
  1.975811963786e-02 
  2.429680839342e-02 
  2.200528412988e-06 
  1.061969692161e-02 
  1.418764217218e-02 
  1.867119310251e-02 
  5.602658950041e-06 
  7.813885650671e-03 
  1.274668683941e-02 
 -3.147644468094e-06 
  6.517988154953e-03 
  1.903846531980e-06 
  5.739788115701e-02 
  5.467127025725e-02 
  4.989170874421e-02 
  4.116390166801e-02 
  2.570597170263e-02 
 -4.149023028844e-07 
  5.567745492427e-02 
  5.088256593842e-02 
  4.205411017396e-02 
  2.630895375622e-02 
 -1.681803368124e-07 
  5.180875764888e-02 
  4.288736507127e-02 
  2.687771329657e-02 
 -1.911952325405e-07 
  4.366554831419e-02 
  2.741052883190e-02 
 -1.880974802154e-07 
  2.790566955923e-02 
 -8.583412327014e-08 
 -2.916372067097e-07 
  2.963695993891e-02 
  3.406199688308e-02 
  3.878867767081e-02 
  4.293657566858e-02 
  4.630171771901e-02 
  4.901728178657e-02 
  3.467497757904e-02 
  3.859120108873e-02 
  4.254748604794e-02 
  4.598474619006e-02 
  4.874523503524e-02 
  3.941609627463e-02 
  4.286753200469e-02 
  4.614630214269e-02 
  4.890328857860e-02 
  4.386076049501e-02 
  4.689259997925e-02 
  4.954050608239e-02 
  4.800870931538e-02 
  5.064414874180e-02 
  5.186294501596e-02 
  4.901582236488e-02 
  4.630196709896e-02 
  4.293529092278e-02 
  3.878943870591e-02 
  3.406114672450e-02 
  2.963922294337e-02 
  4.689806216784e-02 
  4.362653730353e-02 
  3.958070048851e-02 
  3.463556671434e-02 
  2.904334120115e-02 
  4.473793490070e-02 
  4.094741852749e-02 
  3.623104376393e-02 
  3.042466687723e-02 
  4.265100075594e-02 
  3.836847273242e-02 
  3.295290027279e-02 
  4.069691813291e-02 
  3.585516863209e-02 
  3.863086288825e-02 
  5.734356743124e-02 
  5.742682934585e-02 
  5.700069699344e-02 
  5.600271720910e-02 
  5.432872674324e-02 
  5.186412333215e-02 
  5.610697923557e-02 
  5.557919742332e-02 
  5.453330556300e-02 
  5.290371131373e-02 
  5.064384568365e-02 
  5.460920172761e-02 
  5.350486583188e-02 
  5.183209910087e-02 
  4.953995171923e-02 
  5.290274277540e-02 
  5.122208672229e-02 
  4.890323452445e-02 
  5.102353957105e-02 
  4.874601373135e-02 
  4.901479823511e-02 
  5.945968989526e-02 
  4.656360316830e-02 
  4.916080248622e-02 
  5.113121326409e-02 
  5.439969405772e-02 
  3.866930249962e-04 
  5.193369488688e-02 
  5.168752134998e-02 
  5.082097120735e-02 
  5.152974473657e-02 
  4.719560487001e-02 
  5.181302596153e-02 
  5.220053343636e-02 
  5.070086878904e-02 
  5.189084511365e-02 
  5.190032270424e-02 
  5.127162609422e-02 
  4.974555679395e-02 
  5.218835546543e-02 
  4.974000469241e-02 
  5.455908101618e-02 
  3.863128918518e-02 
  4.182393198117e-02 
  4.446684258650e-02 
  4.676003304712e-02 
  4.879235671668e-02 
  5.057715291637e-02 
  4.069558066347e-02 
  4.351699693700e-02 
  4.598162424521e-02 
  4.814294957795e-02 
  5.003470633153e-02 
  4.265060886950e-02 
  4.529905350883e-02 
  4.759960222706e-02 
  4.958181620830e-02 
  4.473756745800e-02 
  4.717403219327e-02 
  4.925205535746e-02 
  4.689639967008e-02 
  4.905208005650e-02 
  4.901550652497e-02 
  5.299186836499e-02 
  5.118622176850e-02 
  5.196954784645e-02 
  5.209157934346e-02 
  5.216715096461e-02 
  5.383991489502e-02 
  5.168056427749e-02 
  5.174902711501e-02 
  5.206279173030e-02 
  5.195116103592e-02 
  5.215780640678e-02 
  5.185091822069e-02 
  5.200626338447e-02 
  5.207446130629e-02 
  5.188110159619e-02 
  5.241917312477e-02 
  5.205501624678e-02 
  5.201847835405e-02 
  5.236406157833e-02 
  5.214678113977e-02 
  5.187004116702e-02 
  4.984887375098e-02 
  5.157553942244e-02 
  5.317820695588e-02 
  5.468169805312e-02 
  5.608591820331e-02 
  5.740006415965e-02 
  5.146908076554e-02 
  5.311469475618e-02 
  5.467005946976e-02 
  5.613739700696e-02 
  5.751783112024e-02 
  5.268037519008e-02 
  5.424896889028e-02 
  5.575139625415e-02 
  5.718968857312e-02 
  5.376755325182e-02 
  5.526899609792e-02 
  5.673394441655e-02 
  5.480399854259e-02 
  5.626012813369e-02 
  5.581181979803e-02 
  1.218811113752e-06 
  2.176651987480e-02 
  3.510374405223e-02 
  4.283172666984e-02 
  4.722885539710e-02 
  4.984956740332e-02 
  2.055687984426e-02 
  3.334045054772e-02 
  4.088889887990e-02 
  4.529022194795e-02 
  4.801298758849e-02 
  3.135425626148e-02 
  3.872842663933e-02 
  4.316292148325e-02 
  4.600388705647e-02 
  3.629382904280e-02 
  4.079645655303e-02 
  4.380093463216e-02 
  3.813185711700e-02 
  4.135940575195e-02 
  3.863140729419e-02 
  5.058093598280e-02 
  5.162078876712e-02 
  5.265515344619e-02 
  5.369768336272e-02 
  5.474544910890e-02 
  5.581117768851e-02 
  5.156982708849e-02 
  5.248882859109e-02 
  5.343119905295e-02 
  5.440152827938e-02 
  5.540118435713e-02 
  5.246950810431e-02 
  5.328216431940e-02 
  5.413785334284e-02 
  5.504382238038e-02 
  5.326753675343e-02 
  5.397699562374e-02 
  5.475256079434e-02 
  5.394128480134e-02 
  5.454971327470e-02 
  5.445580593273e-02 
  5.581091406688e-02 
  5.474562471955e-02 
  5.369764469483e-02 
  5.265526621990e-02 
  5.162080687768e-02 
  5.058127353880e-02 
  5.480454957214e-02 
  5.370886576089e-02 
  5.260259483931e-02 
  5.148327965032e-02 
  5.034629251591e-02 
  5.376747505452e-02 
  5.261539920326e-02 
  5.143477956725e-02 
  5.022118006920e-02 
  5.268071660595e-02 
  5.146083071098e-02 
  5.019319557672e-02 
  5.146926362280e-02 
  5.017342621436e-02 
  4.984984676463e-02 
  5.899033120616e-02 
  5.772983243960e-02 
  5.669754212888e-02 
  5.583767177254e-02 
  5.510576539748e-02 
  5.445587218532e-02 
  5.871386202415e-02 
  5.746395966944e-02 
  5.638066452043e-02 
  5.542069687125e-02 
  5.454964315669e-02 
  5.819095012491e-02 
  5.694552645227e-02 
  5.580930190500e-02 
  5.475252088506e-02 
  5.749791196795e-02 
  5.624024257295e-02 
  5.504376099248e-02 
  5.668887557214e-02 
  5.540104783551e-02 
  5.581161014857e-02 
  5.057967455166e-02 
  5.156987027954e-02 
  5.246944458920e-02 
  5.326748636708e-02 
  5.394143347274e-02 
  5.445553725168e-02 
  5.003418986501e-02 
  5.111439435823e-02 
  5.210013472513e-02 
  5.296843953591e-02 
  5.369737834209e-02 
  4.958218132815e-02 
  5.077254036995e-02 
  5.185188169215e-02 
  5.280114319174e-02 
  4.925129775286e-02 
  5.055795903550e-02 
  5.174052753562e-02 
  4.905213190485e-02 
  5.048599160998e-02 
  4.901424066236e-02 
  5.898985915739e-02 
  5.871386752833e-02 
  5.819091593628e-02 
  5.749796234538e-02 
  5.668869931699e-02 
  5.581259837765e-02 
  6.004967752341e-02 
  5.954749003983e-02 
  5.887176274323e-02 
  5.808428845330e-02 
  5.722648571811e-02 
  6.106857747688e-02 
  6.035182080253e-02 
  5.953436755505e-02 
  5.866449638039e-02 
  6.201015915389e-02 
  6.110102967149e-02 
  6.016179466567e-02 
  6.285230589158e-02 
  6.177665734064e-02 
  6.357406619025e-02 
  4.984986589271e-02 
  5.017381354574e-02 
  5.019348541612e-02 
  5.022121875448e-02 
  5.034636702292e-02 
  5.057969414655e-02 
  4.801323246120e-02 
  4.833333712678e-02 
  4.840880319337e-02 
  4.853345953433e-02 
  4.879199310313e-02 
  4.600400980240e-02 
  4.634984862754e-02 
  4.650659134477e-02 
  4.676018006042e-02 
  4.380111310039e-02 
  4.419079830528e-02 
  4.446627072783e-02 
  4.135958253561e-02 
  4.182358037629e-02 
  3.863123949941e-02 
  3.599794670284e-08 
 -1.602809527559e-07 
 -8.805040503191e-08 
 -1.927293240242e-07 
 -1.515857876874e-07 
 -7.039049321147e-07 
  3.053027037480e-02 
  3.043564873351e-02 
  3.018154621515e-02 
  2.980390728811e-02 
  2.934337648466e-02 
  4.784679504444e-02 
  4.766041163434e-02 
  4.722822238512e-02 
  4.661318045767e-02 
  5.685628935239e-02 
  5.657158823345e-02 
  5.600900388870e-02 
  6.116950721545e-02 
  6.077459106386e-02 
  6.310153341444e-02 
  5.734289641917e-02 
  5.610563496273e-02 
  5.460890553250e-02 
  5.290324963751e-02 
  5.102380243034e-02 
  4.901436084262e-02 
  5.607211888282e-02 
  5.497034437746e-02 
  5.365297100571e-02 
  5.214684794556e-02 
  5.048586342991e-02 
  5.515465338978e-02 
  5.420748108214e-02 
  5.305889740247e-02 
  5.174068707425e-02 
  5.458635862338e-02 
  5.379182908369e-02 
  5.280132418639e-02 
  5.436862260801e-02 
  5.369738975463e-02 
  5.445523653916e-02 
  6.667835113015e-02 
  6.536170864657e-02 
  6.315296701719e-02 
  6.089240302155e-02 
  5.893063790205e-02 
  5.734490295958e-02 
  6.751719629656e-02 
  6.512244462167e-02 
  6.259264391418e-02 
  6.031191536228e-02 
  5.836661605182e-02 
  6.680148987998e-02 
  6.402069833203e-02 
  6.145249798690e-02 
  5.919321407477e-02 
  6.520268159438e-02 
  6.237404073543e-02 
  5.983345880534e-02 
  6.310103139935e-02 
  6.030352719877e-02 
  6.062834168259e-02 
  6.667959008717e-02 
  6.430758526023e-02 
  6.164116135171e-02 
  5.867908825304e-02 
  5.541963010503e-02 
  5.186286512909e-02 
  6.536153660944e-02 
  6.302883033175e-02 
  6.041127104496e-02 
  5.751221324184e-02 
  5.432856629209e-02 
  6.315411476987e-02 
  6.103148088252e-02 
  5.864016631466e-02 
  5.600211912615e-02 
  6.089140415823e-02 
  5.906528129880e-02 
  5.700195879861e-02 
  5.893021523457e-02 
  5.742716321830e-02 
  5.734489936942e-02 
  6.667916920271e-02 
  6.751630330089e-02 
  6.680118156370e-02 
  6.520289207438e-02 
  6.310171766612e-02 
  6.062692438504e-02 
  6.875457377998e-02 
  6.925081916955e-02 
  6.810993572995e-02 
  6.608222360726e-02 
  6.361275691486e-02 
  7.053231285191e-02 
  7.070695663959e-02 
  6.917058095179e-02 
  6.675862182704e-02 
  7.201283608029e-02 
  7.187641878956e-02 
  6.997668309148e-02 
  7.319810207481e-02 
  7.276918467348e-02 
  7.408659584761e-02 
  6.063034938857e-02 
  6.030267662976e-02 
  5.983344576232e-02 
  5.919408434572e-02 
  5.836786885736e-02 
  5.734247701640e-02 
  5.813899450016e-02 
  5.803279876795e-02 
  5.783677190976e-02 
  5.749977119483e-02 
  5.698259197386e-02 
  5.577234973100e-02 
  5.595399116508e-02 
  5.607937841275e-02 
  5.607604446537e-02 
  5.350883646004e-02 
  5.406361614446e-02 
  5.457744335925e-02 
  5.134947218229e-02 
  5.237764445005e-02 
  4.932604202378e-02 
  4.753376483563e-02 
  5.060312888794e-02 
  5.342968930068e-02 
  5.601723674499e-02 
  5.840632012762e-02 
  6.063081841632e-02 
  4.731506131925e-02 
  5.051750267608e-02 
  5.334437794900e-02 
  5.586814589240e-02 
  5.813879633144e-02 
  4.741677912460e-02 
  5.062412876271e-02 
  5.337668673121e-02 
  5.577230071260e-02 
  4.781060320688e-02 
  5.091083381060e-02 
  5.350894851710e-02 
  4.846163555221e-02 
  5.134953531407e-02 
  4.932583894844e-02 
  6.063015816339e-02 
  6.085769577545e-02 
  6.103711623879e-02 
  6.115495715538e-02 
  6.121172186050e-02 
  6.120029839955e-02 
  6.361228045816e-02 
  6.400750865390e-02 
  6.425766419332e-02 
  6.436454465307e-02 
  6.434136055208e-02 
  6.676021053516e-02 
  6.727867181097e-02 
  6.757545335252e-02 
  6.766123808920e-02 
  6.997540212203e-02 
  7.056758322065e-02 
  7.089137795449e-02 
  7.276983518950e-02 
  7.339852361344e-02 
  7.408348305468e-02 
  5.734097277680e-02 
  5.632172648361e-02 
  5.542403312006e-02 
  5.467620145082e-02 
  5.411566064128e-02 
  5.386017997038e-02 
  5.698294289045e-02 
  5.572697136797e-02 
  5.458611316217e-02 
  5.357397364586e-02 
  5.276692394657e-02 
  5.607568151984e-02 
  5.454509402693e-02 
  5.307888232821e-02 
  5.170480872338e-02 
  5.457715845347e-02 
  5.266806670519e-02 
  5.073473015822e-02 
  5.237759191584e-02 
  4.992358259791e-02 
  4.932612166122e-02 
  5.535397624451e-02 
  5.253034085238e-02 
  5.135123864918e-02 
  5.163977039867e-02 
  5.315108956791e-02 
  5.349676064353e-02 
  5.200455974182e-02 
  5.198546208119e-02 
  5.200692942096e-02 
  5.326338862775e-02 
  5.542282992511e-02 
  5.184647113510e-02 
  5.154484879767e-02 
  5.132983388103e-02 
  5.111717497823e-02 
  5.054886848453e-02 
  5.149294846456e-02 
  5.000237885106e-02 
  4.114594379697e-02 
  4.740758802144e-02 
  1.740813564346e-04 
  4.659427795810e-02 
  4.902160370028e-02 
  5.078576433402e-02 
  5.211313016942e-02 
  5.311134183487e-02 
  5.386510669717e-02 
  4.902883831280e-02 
  5.093148122629e-02 
  5.228483953437e-02 
  5.328342073436e-02 
  5.400948109602e-02 
  5.164577180275e-02 
  5.297950245189e-02 
  5.388530859626e-02 
  5.452910977558e-02 
  5.436259248556e-02 
  5.510082525915e-02 
  5.553946499005e-02 
  5.708641386342e-02 
  5.722597967487e-02 
  5.972895178765e-02 
  5.385989228056e-02 
  5.411569822399e-02 
  5.467610519879e-02 
  5.542428145704e-02 
  5.632168961863e-02 
  5.734151737478e-02 
  5.469573672075e-02 
  5.469619445865e-02 
  5.497365744197e-02 
  5.544772040134e-02 
  5.607186526057e-02 
  5.512182433384e-02 
  5.490222097712e-02 
  5.493777101624e-02 
  5.515411884018e-02 
  5.519031411926e-02 
  5.478236748788e-02 
  5.458665801238e-02 
  5.495896728822e-02 
  5.436843778630e-02 
  5.445579483858e-02 
  1.874176338765e-02 
  2.317936708396e-02 
  2.708007143172e-02 
  3.048533454934e-02 
  3.346594562455e-02 
  3.609937143812e-02 
  2.044417673951e-02 
  2.475673551906e-02 
  2.851080621901e-02 
  3.176218895414e-02 
  3.457745798597e-02 
  2.261701646133e-02 
  2.681451804337e-02 
  3.035911223063e-02 
  3.338871268559e-02 
  2.531134327628e-02 
  2.931451658575e-02 
  3.258876425540e-02 
  2.852322795169e-02 
  3.221921095955e-02 
  3.217355024188e-02 
  3.609595451012e-02 
  3.970902663475e-02 
  4.271659996927e-02 
  4.525037607891e-02 
  4.742410784563e-02 
  4.932707663483e-02 
  3.749322333917e-02 
  4.083855744629e-02 
  4.359989515211e-02 
  4.592886592146e-02 
  4.792231944477e-02 
  3.933132090989e-02 
  4.228522857065e-02 
  4.472592943632e-02 
  4.679412054741e-02 
  4.152951493914e-02 
  4.400441034922e-02 
  4.605907297113e-02 
  4.398338062096e-02 
  4.592800159648e-02 
  4.659599887808e-02 
  4.659227337216e-02 
  4.494202856361e-02 
  4.283747457719e-02 
  4.017636386603e-02 
  3.671827841102e-02 
  3.217439620595e-02 
  4.398250257334e-02 
  4.189338797943e-02 
  3.934047519455e-02 
  3.617818877796e-02 
  3.221923549438e-02 
  4.152947258465e-02 
  3.907826520584e-02 
  3.613646138682e-02 
  3.258861348113e-02 
  3.933102773219e-02 
  3.660742583771e-02 
  3.338841097560e-02 
  3.749248835236e-02 
  3.457767033077e-02 
  3.609889524415e-02 
  3.609460473046e-02 
  3.763354218611e-02 
  3.982753375530e-02 
  4.233754440030e-02 
  4.494518249134e-02 
  4.753261340377e-02 
  3.970938007962e-02 
  4.101329910924e-02 
  4.286818180497e-02 
  4.502702698757e-02 
  4.731471255596e-02 
  4.271663183428e-02 
  4.386946312296e-02 
  4.550116865257e-02 
  4.741623911055e-02 
  4.525019203680e-02 
  4.632319302948e-02 
  4.781029838607e-02 
  4.742426377395e-02 
  4.846161095918e-02 
  4.932583004159e-02 
  5.899043870568e-02 
  5.947061545792e-02 
  5.984426867131e-02 
  6.008634647150e-02 
  6.011976743571e-02 
  5.972991816919e-02 
  5.803234009030e-02 
  5.820810288059e-02 
  5.818662732869e-02 
  5.790006022762e-02 
  5.722581911170e-02 
  5.699338631675e-02 
  5.683577971924e-02 
  5.638535793003e-02 
  5.553972853803e-02 
  5.591881182712e-02 
  5.541514038730e-02 
  5.452889142314e-02 
  5.485589122059e-02 
  5.400959840117e-02 
  5.386438752766e-02 
  4.659741288627e-02 
  4.592763589719e-02 
  4.605940770047e-02 
  4.679400049348e-02 
  4.792244415877e-02 
  4.932667889931e-02 
  4.902113572086e-02 
  4.835657801652e-02 
  4.840632885303e-02 
  4.897648854780e-02 
  4.992436494601e-02 
  5.078617541360e-02 
  5.022180829459e-02 
  5.025010435841e-02 
  5.073550645597e-02 
  5.211294822630e-02 
  5.165951426079e-02 
  5.170576790024e-02 
  5.311162380399e-02 
  5.276732123590e-02 
  5.386274358274e-02 
  5.899090791758e-02 
  5.803202748744e-02 
  5.699304228859e-02 
  5.591815490388e-02 
  5.485547407330e-02 
  5.386155616096e-02 
  5.772979092644e-02 
  5.697378226225e-02 
  5.619326830917e-02 
  5.542056179634e-02 
  5.469551880427e-02 
  5.669770222845e-02 
  5.614850391733e-02 
  5.561425849309e-02 
  5.512196711660e-02 
  5.583757398912e-02 
  5.549195780131e-02 
  5.519024609278e-02 
  5.510591198605e-02 
  5.495936898423e-02 
  5.445537597393e-02 
  3.609729137138e-02 
  3.346652050653e-02 
  3.048507780826e-02 
  2.707970153062e-02 
  2.317939433921e-02 
  1.874295591117e-02 
  3.434515088213e-02 
  3.149440190280e-02 
  2.825614268823e-02 
  2.458462408071e-02 
  2.045324432878e-02 
  3.302264229318e-02 
  3.002419573280e-02 
  2.664409773117e-02 
  2.284764258318e-02 
  3.218144683187e-02 
  2.913786411522e-02 
  2.574058963097e-02 
  3.185551798359e-02 
  2.887178985110e-02 
  3.203420646861e-02 
  6.357537909208e-02 
  6.177673090803e-02 
  6.016220541616e-02 
  5.866438356982e-02 
  5.722671148691e-02 
  5.581201653683e-02 
  6.225849366350e-02 
  6.065879967049e-02 
  5.915107298999e-02 
  5.769665281494e-02 
  5.626055140686e-02 
  6.103321608927e-02 
  5.956736921135e-02 
  5.814481827885e-02 
  5.673390647370e-02 
  5.993728380536e-02 
  5.857658781395e-02 
  5.719027181974e-02 
  5.894066359641e-02 
  5.751787250432e-02 
  5.740424658021e-02 
  5.964995924557e-02 
  5.178276054010e-02 
  5.179441207731e-02 
  5.188935027192e-02 
  5.217358941165e-02 
  5.469834823729e-02 
  5.377308703501e-02 
  5.199158952348e-02 
  5.207520600484e-02 
  5.217759559132e-02 
  5.179183521496e-02 
  5.206061517561e-02 
  5.227624635060e-02 
  5.217970544181e-02 
  5.230408041751e-02 
  5.138906991942e-02 
  5.181265676910e-02 
  5.552874599417e-02 
  5.257636786304e-02 
  5.548269572038e-02 
  5.474810289412e-02 
  6.687594650236e-02 
  6.576990992389e-02 
  6.484030296402e-02 
  6.407178579086e-02 
  6.336210836581e-02 
  6.217247546603e-02 
  6.744510469872e-02 
  6.624498786315e-02 
  6.524678093532e-02 
  6.443495579632e-02 
  6.366723433569e-02 
  6.788109913207e-02 
  6.659972218237e-02 
  6.555369231491e-02 
  6.470750635014e-02 
  6.816800121449e-02 
  6.683149570358e-02 
  6.575754511304e-02 
  6.830410407013e-02 
  6.693918134174e-02 
  6.829018328482e-02 
  6.687525155317e-02 
  6.647646884080e-02 
  6.594005176316e-02 
  6.526819343241e-02 
  6.447126032908e-02 
  6.357429983781e-02 
  6.469098524120e-02 
  6.422262259875e-02 
  6.365580167852e-02 
  6.299901105543e-02 
  6.225855525722e-02 
  6.281680068037e-02 
  6.228509077462e-02 
  6.168831871610e-02 
  6.103299893456e-02 
  6.115233965409e-02 
  6.057389648964e-02 
  5.993731078442e-02 
  5.951521160281e-02 
  5.894034659620e-02 
  5.740529742018e-02 
  5.898999957292e-02 
  6.044629701449e-02 
  6.227777541461e-02 
  6.464483981202e-02 
  6.771500840847e-02 
  7.161078107996e-02 
  5.947031736307e-02 
  6.107292290425e-02 
  6.318042442975e-02 
  6.598094273889e-02 
  6.959221508914e-02 
  5.984385516364e-02 
  6.164753883241e-02 
  6.409964136806e-02 
  6.734317780061e-02 
  6.008607840592e-02 
  6.212682663394e-02 
  6.490568360252e-02 
  6.011984133713e-02 
  6.234310869165e-02 
  5.972829352456e-02 
  7.161114989517e-02 
  6.771505358320e-02 
  6.464496698606e-02 
  6.227782407174e-02 
  6.044638388074e-02 
  5.898982948237e-02 
  6.970843802638e-02 
  6.642840985807e-02 
  6.381917743201e-02 
  6.174110920710e-02 
  6.004920708941e-02 
  6.790363290209e-02 
  6.517129839562e-02 
  6.293088950889e-02 
  6.106819266194e-02 
  6.629332339538e-02 
  6.398026905366e-02 
  6.200947129804e-02 
  6.485933599619e-02 
  6.285151801281e-02 
  6.357236022577e-02 
  7.956731705374e-02 
  7.856803372445e-02 
  7.724700626854e-02 
  7.562143702112e-02 
  7.372343177997e-02 
  7.161373909497e-02 
  7.506393285933e-02 
  7.403433894052e-02 
  7.277455761972e-02 
  7.131832266253e-02 
  6.970816821909e-02 
  7.128114237133e-02 
  7.028923867861e-02 
  6.915466840199e-02 
  6.790396808827e-02 
  6.820333471109e-02 
  6.729215139333e-02 
  6.629299554920e-02 
  6.568643722605e-02 
  6.485922025606e-02 
  6.357098221933e-02 
  6.741114682071e-02 
  6.762341207019e-02 
  6.610717556768e-02 