# vtk DataFile Version 2
NuDG++ 2D simulation
ASCII
DATASET UNSTRUCTURED_GRID

POINTS 7854 double
 -1.656250060000e-01  -2.000000030000e-01  0.0
 -1.725000054000e-01  -1.908888817000e-01  0.0
 -1.793750048000e-01  -1.817777604000e-01  0.0
 -1.862500042000e-01  -1.726666391000e-01  0.0
 -1.931250036000e-01  -1.635555178000e-01  0.0
 -2.000000030000e-01  -1.544443965000e-01  0.0
 -1.725000054000e-01  -2.000000030000e-01  0.0
 -1.793750048000e-01  -1.908888817000e-01  0.0
 -1.862500042000e-01  -1.817777604000e-01  0.0
 -1.931250036000e-01  -1.726666391000e-01  0.0
 -2.000000030000e-01  -1.635555178000e-01  0.0
 -1.793750048000e-01  -2.000000030000e-01  0.0
 -1.862500042000e-01  -1.908888817000e-01  0.0
 -1.931250036000e-01  -1.817777604000e-01  0.0
 -2.000000030000e-01  -1.726666391000e-01  0.0
 -1.862500042000e-01  -2.000000030000e-01  0.0
 -1.931250036000e-01  -1.908888817000e-01  0.0
 -2.000000030000e-01  -1.817777604000e-01  0.0
 -1.931250036000e-01  -2.000000030000e-01  0.0
 -2.000000030000e-01  -1.908888817000e-01  0.0
 -2.000000030000e-01  -2.000000030000e-01  0.0
 -6.428571790000e-02  -1.700000018000e-01  0.0
 -7.080357372400e-02  -1.760000020400e-01  0.0
 -7.732142954800e-02  -1.820000022800e-01  0.0
 -8.383928537200e-02  -1.880000025200e-01  0.0
 -9.035714119600e-02  -1.940000027600e-01  0.0
 -9.687499702000e-02  -2.000000030000e-01  0.0
 -6.392857432000e-02  -1.760000020400e-01  0.0
 -7.044643014400e-02  -1.820000022800e-01  0.0
 -7.696428596800e-02  -1.880000025200e-01  0.0
 -8.348214179200e-02  -1.940000027600e-01  0.0
 -8.999999761600e-02  -2.000000030000e-01  0.0
 -6.357143074000e-02  -1.820000022800e-01  0.0
 -7.008928656400e-02  -1.880000025200e-01  0.0
 -7.660714238800e-02  -1.940000027600e-01  0.0
 -8.312499821200e-02  -2.000000030000e-01  0.0
 -6.321428716000e-02  -1.880000025200e-01  0.0
 -6.973214298400e-02  -1.940000027600e-01  0.0
 -7.624999880800e-02  -2.000000030000e-01  0.0
 -6.285714358000e-02  -1.940000027600e-01  0.0
 -6.937499940400e-02  -2.000000030000e-01  0.0
 -6.250000000000e-02  -2.000000030000e-01  0.0
 -2.000000030000e-01  -1.544443965000e-01  0.0
 -1.900000036000e-01  -1.478412374800e-01  0.0
 -1.800000042000e-01  -1.412380784600e-01  0.0
 -1.700000048000e-01  -1.346349194400e-01  0.0
 -1.600000054000e-01  -1.280317604200e-01  0.0
 -1.500000060000e-01  -1.214286014000e-01  0.0
 -2.000000030000e-01  -1.453332975600e-01  0.0
 -1.900000036000e-01  -1.387301385400e-01  0.0
 -1.800000042000e-01  -1.321269795200e-01  0.0
 -1.700000048000e-01  -1.255238205000e-01  0.0
 -1.600000054000e-01  -1.189206614800e-01  0.0
 -2.000000030000e-01  -1.362221986200e-01  0.0
 -1.900000036000e-01  -1.296190396000e-01  0.0
 -1.800000042000e-01  -1.230158805800e-01  0.0
 -1.700000048000e-01  -1.164127215600e-01  0.0
 -2.000000030000e-01  -1.271110996800e-01  0.0
 -1.900000036000e-01  -1.205079406600e-01  0.0
 -1.800000042000e-01  -1.139047816400e-01  0.0
 -2.000000030000e-01  -1.180000007400e-01  0.0
 -1.900000036000e-01  -1.113968417200e-01  0.0
 -2.000000030000e-01  -1.088889018000e-01  0.0
 -1.500000060000e-01  -1.214286014000e-01  0.0
 -1.600000054000e-01  -1.280317604200e-01  0.0
 -1.700000048000e-01  -1.346349194400e-01  0.0
 -1.800000042000e-01  -1.412380784600e-01  0.0
 -1.900000036000e-01  -1.478412374800e-01  0.0
 -2.000000030000e-01  -1.544443965000e-01  0.0
 -1.500000060000e-01  -1.311428814800e-01  0.0
 -1.600000054000e-01  -1.377460405000e-01  0.0
 -1.700000048000e-01  -1.443491995200e-01  0.0
 -1.800000042000e-01  -1.509523585400e-01  0.0
 -1.900000036000e-01  -1.575555175600e-01  0.0
 -1.500000060000e-01  -1.408571615600e-01  0.0
 -1.600000054000e-01  -1.474603205800e-01  0.0
 -1.700000048000e-01  -1.540634796000e-01  0.0
 -1.800000042000e-01  -1.606666386200e-01  0.0
 -1.500000060000e-01  -1.505714416400e-01  0.0
 -1.600000054000e-01  -1.571746006600e-01  0.0
 -1.700000048000e-01  -1.637777596800e-01  0.0
 -1.500000060000e-01  -1.602857217200e-01  0.0
 -1.600000054000e-01  -1.668888807400e-01  0.0
 -1.500000060000e-01  -1.700000018000e-01  0.0
 -1.500000060000e-01  -7.285714149000e-02  0.0
 -1.600000054000e-01  -8.006349355200e-02  0.0
 -1.700000048000e-01  -8.726984561400e-02  0.0
 -1.800000042000e-01  -9.447619767600e-02  0.0
 -1.900000036000e-01  -1.016825497380e-01  0.0
 -2.000000030000e-01  -1.088889018000e-01  0.0
 -1.500000060000e-01  -8.257143347200e-02  0.0
 -1.600000054000e-01  -8.977778553400e-02  0.0
 -1.700000048000e-01  -9.698413759600e-02  0.0
 -1.800000042000e-01  -1.041904896580e-01  0.0
 -1.900000036000e-01  -1.113968417200e-01  0.0
 -1.500000060000e-01  -9.228572545400e-02  0.0
 -1.600000054000e-01  -9.949207751600e-02  0.0
 -1.700000048000e-01  -1.066984295780e-01  0.0
 -1.800000042000e-01  -1.139047816400e-01  0.0
 -1.500000060000e-01  -1.020000174360e-01  0.0
 -1.600000054000e-01  -1.092063694980e-01  0.0
 -1.700000048000e-01  -1.164127215600e-01  0.0
 -1.500000060000e-01  -1.117143094180e-01  0.0
 -1.600000054000e-01  -1.189206614800e-01  0.0
 -1.500000060000e-01  -1.214286014000e-01  0.0
  1.832975030000e+00  -4.625000060000e-02  0.0
  1.841380024000e+00  -7.700000108000e-02  0.0
  1.849785018000e+00  -1.077500015600e-01  0.0
  1.858190012000e+00  -1.385000020400e-01  0.0
  1.866595006000e+00  -1.692500025200e-01  0.0
  1.875000000000e+00  -2.000000030000e-01  0.0
  1.866380024000e+00  -5.649999976400e-02  0.0
  1.874785018000e+00  -8.725000024400e-02  0.0
  1.883190012000e+00  -1.180000007240e-01  0.0
  1.891595006000e+00  -1.487500012040e-01  0.0
  1.900000000000e+00  -1.795000016840e-01  0.0
  1.899785018000e+00  -6.674999892800e-02  0.0
  1.908190012000e+00  -9.749999940800e-02  0.0
  1.916595006000e+00  -1.282499998880e-01  0.0
  1.925000000000e+00  -1.590000003680e-01  0.0
  1.933190012000e+00  -7.699999809200e-02  0.0
  1.941595006000e+00  -1.077499985720e-01  0.0
  1.950000000000e+00  -1.384999990520e-01  0.0
  1.966595006000e+00  -8.724999725600e-02  0.0
  1.975000000000e+00  -1.179999977360e-01  0.0
  2.000000000000e+00  -9.749999642000e-02  0.0
 -1.500000060000e-01  -1.700000018000e-01  0.0
 -1.444000050800e-01  -1.630000025200e-01  0.0
 -1.388000041600e-01  -1.560000032400e-01  0.0
 -1.332000032400e-01  -1.490000039600e-01  0.0
 -1.276000023200e-01  -1.420000046800e-01  0.0
 -1.220000014000e-01  -1.350000054000e-01  0.0
 -1.500000060000e-01  -1.602857217200e-01  0.0
 -1.444000050800e-01  -1.532857224400e-01  0.0
 -1.388000041600e-01  -1.462857231600e-01  0.0
 -1.332000032400e-01  -1.392857238800e-01  0.0
 -1.276000023200e-01  -1.322857246000e-01  0.0
 -1.500000060000e-01  -1.505714416400e-01  0.0
 -1.444000050800e-01  -1.435714423600e-01  0.0
 -1.388000041600e-01  -1.365714430800e-01  0.0
 -1.332000032400e-01  -1.295714438000e-01  0.0
 -1.500000060000e-01  -1.408571615600e-01  0.0
 -1.444000050800e-01  -1.338571622800e-01  0.0
 -1.388000041600e-01  -1.268571630000e-01  0.0
 -1.500000060000e-01  -1.311428814800e-01  0.0
 -1.444000050800e-01  -1.241428822000e-01  0.0
 -1.500000060000e-01  -1.214286014000e-01  0.0
  2.849999964000e-01  -2.333333530000e-02  0.0
  2.844999968800e-01  -4.666666836000e-02  0.0
  2.839999973600e-01  -7.000000142000e-02  0.0
  2.834999978400e-01  -9.333333448000e-02  0.0
  2.829999983200e-01  -1.166666675400e-01  0.0
  2.824999988000e-01  -1.400000006000e-01  0.0
  2.979999959200e-01  -3.266666830000e-02  0.0
  2.974999964000e-01  -5.600000136000e-02  0.0
  2.969999968800e-01  -7.933333442000e-02  0.0
  2.964999973600e-01  -1.026666674800e-01  0.0
  2.959999978400e-01  -1.260000005400e-01  0.0
  3.109999954400e-01  -4.200000130000e-02  0.0
  3.104999959200e-01  -6.533333436000e-02  0.0
  3.099999964000e-01  -8.866666742000e-02  0.0
  3.094999968800e-01  -1.120000004800e-01  0.0
  3.239999949600e-01  -5.133333430000e-02  0.0
  3.234999954400e-01  -7.466666736000e-02  0.0
  3.229999959200e-01  -9.800000042000e-02  0.0
  3.369999944800e-01  -6.066666730000e-02  0.0
  3.364999949600e-01  -8.400000036000e-02  0.0
  3.499999940000e-01  -7.000000030000e-02  0.0
 -1.071429029000e-01  -1.700000018000e-01  0.0
 -9.857146590000e-02  -1.700000018000e-01  0.0
 -9.000002890000e-02  -1.700000018000e-01  0.0
 -8.142859190000e-02  -1.700000018000e-01  0.0
 -7.285715490000e-02  -1.700000018000e-01  0.0
 -6.428571790000e-02  -1.700000018000e-01  0.0
 -1.037143230360e-01  -1.630000025200e-01  0.0
 -9.514288603600e-02  -1.630000025200e-01  0.0
 -8.657144903600e-02  -1.630000025200e-01  0.0
 -7.800001203600e-02  -1.630000025200e-01  0.0
 -6.942857503600e-02  -1.630000025200e-01  0.0
 -1.002857431720e-01  -1.560000032400e-01  0.0
 -9.171430617200e-02  -1.560000032400e-01  0.0
 -8.314286917200e-02  -1.560000032400e-01  0.0
 -7.457143217200e-02  -1.560000032400e-01  0.0
 -9.685716330800e-02  -1.490000039600e-01  0.0
 -8.828572630800e-02  -1.490000039600e-01  0.0
 -7.971428930800e-02  -1.490000039600e-01  0.0
 -9.342858344400e-02  -1.420000046800e-01  0.0
 -8.485714644400e-02  -1.420000046800e-01  0.0
 -9.000000358000e-02  -1.350000054000e-01  0.0
 -1.312499940000e-01  -2.000000030000e-01  0.0
 -1.264285757800e-01  -1.940000027600e-01  0.0
 -1.216071575600e-01  -1.880000025200e-01  0.0
 -1.167857393400e-01  -1.820000022800e-01  0.0
 -1.119643211200e-01  -1.760000020400e-01  0.0
 -1.071429029000e-01  -1.700000018000e-01  0.0
 -1.349999964000e-01  -1.940000027600e-01  0.0
 -1.301785781800e-01  -1.880000025200e-01  0.0
 -1.253571599600e-01  -1.820000022800e-01  0.0
 -1.205357417400e-01  -1.760000020400e-01  0.0
 -1.157143235200e-01  -1.700000018000e-01  0.0
 -1.387499988000e-01  -1.880000025200e-01  0.0
 -1.339285805800e-01  -1.820000022800e-01  0.0
 -1.291071623600e-01  -1.760000020400e-01  0.0
 -1.242857441400e-01  -1.700000018000e-01  0.0
 -1.425000012000e-01  -1.820000022800e-01  0.0
 -1.376785829800e-01  -1.760000020400e-01  0.0
 -1.328571647600e-01  -1.700000018000e-01  0.0
 -1.462500036000e-01  -1.760000020400e-01  0.0
 -1.414285853800e-01  -1.700000018000e-01  0.0
 -1.500000060000e-01  -1.700000018000e-01  0.0
[...]
POINT_DATA 7854
SCALARS field1 double 1
LOOKUP_TABLE default
  1.976942033260e-06 
  1.007090701874e-02 
  1.116105007219e-02 
  1.117793761093e-02 
  1.225247613155e-02 
  1.433468355057e-02 
 -4.119703666154e-06 
  8.379515741648e-03 
  9.148956986218e-03 
  9.713833309250e-03 
  1.174583363031e-02 
  1.000138399983e-06 
  6.331882031284e-03 
  7.211501785124e-03 
  9.030625616539e-03 
  1.293218736522e-05 
  4.242131162103e-03 
  6.167620945770e-03 
 -2.246128499680e-06 
  3.147087876390e-03 
  3.943543894835e-06 
  2.732334973120e-02 
  2.664505528247e-02 
  2.545078658136e-02 
  2.260074584969e-02 
  1.552953263063e-02 
 -1.161014381461e-06 
  2.710726336391e-02 
  2.592437558720e-02 
  2.306363413898e-02 
  1.587308382097e-02 
 -3.842626120859e-07 
  2.636784262212e-02 
  2.349405836708e-02 
  1.619805590680e-02 
 -4.390150486747e-07 
  2.389627073969e-02 
  1.650183161982e-02 
 -4.327627536361e-07 
  1.678312549113e-02 
 -2.999239978806e-07 
 -5.610001992549e-07 
  1.432970137560e-02 
  1.658782531626e-02 
  1.889057526566e-02 
  2.078324532694e-02 
  2.229078707322e-02 
  2.352264327365e-02 
  1.676284199655e-02 
  1.872697305766e-02 
  2.064157917673e-02 
  2.220089993354e-02 
  2.345817541742e-02 
  1.905731066465e-02 
  2.076207712981e-02 
  2.230458678671e-02 
  2.356293744905e-02 
  2.120586935916e-02 
  2.266622488500e-02 
  2.388337648670e-02 
  2.321237603009e-02 
  2.445086145793e-02 
  2.507433426618e-02 
  2.352350746099e-02 
  2.229077220590e-02 
  2.078369717108e-02 
  1.889001050606e-02 
  1.658882511359e-02 
  1.433066118446e-02 
  2.250687557463e-02 
  2.105432640183e-02 
  1.925274574538e-02 
  1.696103687597e-02 
  1.421804241591e-02 
  2.150997542798e-02 
  1.982983382773e-02 
  1.771292998306e-02 
  1.503064917306e-02 
  2.055093468029e-02 
  1.864264231324e-02 
  1.622686596666e-02 
  1.966562058679e-02 
  1.755351814095e-02 
  1.888494070672e-02 
  2.743159382253e-02 
  2.744592312146e-02 
  2.729623452394e-02 
  2.690319197079e-02 
  2.620096959295e-02 
  2.507584285110e-02 
  2.680362587958e-02 
  2.659996478856e-02 
  2.616747935866e-02 
  2.545994143691e-02 
  2.445020643668e-02 
  2.612199896654e-02 
  2.566176437632e-02 
  2.491997862400e-02 
  2.388345084816e-02 
  2.536410758930e-02 
  2.461873502422e-02 
  2.356224692369e-02 
  2.450038306617e-02 
  2.345787540036e-02 
  2.352280980991e-02 
  2.790977403245e-02 
  2.366896576856e-02 
  2.431200267745e-02 
  2.356923431147e-02 
  2.622315348465e-02 
  7.364351225263e-04 
  2.471893566959e-02 
  2.494475504897e-02 
  2.424477630758e-02 
  2.395266497088e-02 
  2.374953471954e-02 
  2.472319498463e-02 
  2.484991519195e-02 
  2.404064746794e-02 
  2.430653677537e-02 
  2.456734861093e-02 
  2.450508594695e-02 
  2.387802826323e-02 
  2.500731049985e-02 
  2.357447891055e-02 
  2.581823100947e-02 
  1.888425986138e-02 
  2.017406323735e-02 
  2.133089161706e-02 
  2.236016005431e-02 
  2.328547544545e-02 
  2.411925258571e-02 
  1.966534485043e-02 
  2.092118919866e-02 
  2.203221623418e-02 
  2.301920481643e-02 
  2.388692647699e-02 
  2.055149158714e-02 
  2.174665733711e-02 
  2.279227477221e-02 
  2.370726102955e-02 
  2.151069905912e-02 
  2.261858082968e-02 
  2.357671623551e-02 
  2.250736844509e-02 
  2.351137255906e-02 
  2.352384391765e-02 
  2.508982283216e-02 
  2.454259180483e-02 
  2.478575472117e-02 
  2.491078554664e-02 
  2.484115651470e-02 
  2.622455361564e-02 
  2.472856651190e-02 
  2.465451049610e-02 
  2.483248614645e-02 
  2.484829488973e-02 
  2.498109662284e-02 
  2.471241955676e-02 
  2.478035208097e-02 
  2.483771348704e-02 
  2.483389444156e-02 
  2.482284728513e-02 
  2.483606083074e-02 
  2.479498101978e-02 
  2.479380298732e-02 
  2.492970794252e-02 
  2.445428490763e-02 
  2.394617355805e-02 
  2.472325554734e-02 
  2.544380045614e-02 
  2.611825157138e-02 
  2.674627863508e-02 
  2.732682029651e-02 
  2.446395391962e-02 
  2.519460296601e-02 
  2.588278230054e-02 
  2.653212707109e-02 
  2.714147596607e-02 
  2.495634095541e-02 
  2.564811808489e-02 
  2.630834398918e-02 
  2.694073303169e-02 
  2.544368080716e-02 
  2.610282862870e-02 
  2.674497336038e-02 
  2.591908717583e-02 
  2.655666915002e-02 
  2.638479574901e-02 
 -2.959287313334e-06 
  1.325201216282e-02 
  1.942597465037e-02 
  2.203068916721e-02 
  2.321391333877e-02 
  2.394670829161e-02 
  1.254904306105e-02 
  1.849586605877e-02 
  2.108605682448e-02 
  2.231423234860e-02 
  2.311666653442e-02 
  1.744754432211e-02 
  2.003179714155e-02 
  2.132722573670e-02 
  2.220838973276e-02 
  1.884210051990e-02 
  2.022980564869e-02 
  2.121254120786e-02 
  1.899797483307e-02 
  2.011203170219e-02 
  1.888177461878e-02 
  2.411799450076e-02 
  2.456392835167e-02 
  2.501270807608e-02 
  2.546478744680e-02 
  2.592095746325e-02 
  2.638429808921e-02 
  2.457581882011e-02 
  2.497259589480e-02 
  2.538031426044e-02 
  2.580050714175e-02 
  2.623375115023e-02 
  2.499802319176e-02 
  2.534677048785e-02 
  2.571585242279e-02 
  2.610742320425e-02 
  2.537553534106e-02 
  2.567777597627e-02 
  2.601053173867e-02 
  2.569710525135e-02 
  2.595507083966e-02 
  2.594753737865e-02 
  2.638416644554e-02 
  2.592104527632e-02 
  2.546481168527e-02 
  2.501265612389e-02 
  2.456400172408e-02 
  2.411805791270e-02 
  2.591916847208e-02 
  2.544065230574e-02 
  2.495697993225e-02 
  2.446781948229e-02 
  2.396793953918e-02 
  2.544334171997e-02 
  2.493782894454e-02 
  2.441880069591e-02 
  2.388452544320e-02 
  2.495629185128e-02 
  2.441872404514e-02 
  2.385889027545e-02 
  2.446385059434e-02 
  2.388719185546e-02 
  2.394680808523e-02 
  2.791045731561e-02 
  2.736066827321e-02 
  2.691458589872e-02 
  2.654430630383e-02 
  2.622946574627e-02 
  2.594763702355e-02 
  2.776289476494e-02 
  2.722035708571e-02 
  2.674999862853e-02 
  2.633305437682e-02 
  2.595498936700e-02 
  2.750993879515e-02 
  2.696701547867e-02 
  2.647191966426e-02 
  2.601060309638e-02 
  2.718053992905e-02 
  2.663110947421e-02 
  2.610748633654e-02 
  2.679893904816e-02 
  2.623371035983e-02 
  2.638487849576e-02 
  2.411852269436e-02 
  2.457593469361e-02 
  2.499802742757e-02 
  2.537567021246e-02 
  2.569723492956e-02 
  2.594719476882e-02 
  2.388726895468e-02 
  2.439599787033e-02 
  2.485565320166e-02 
  2.526344351192e-02 
  2.561004978582e-02 
  2.370699907001e-02 
  2.426379670794e-02 
  2.476980616530e-02 
  2.521454009120e-02 
  2.357668298564e-02 
  2.419244207081e-02 
  2.475083604631e-02 
  2.351132594498e-02 
  2.419397129780e-02 
  2.352403989413e-02 
  2.791010829395e-02 
  2.776291251287e-02 
  2.750988571280e-02 
  2.718055432766e-02 
  2.679876475000e-02 
  2.638574543949e-02 
  2.835302296298e-02 
  2.810977544933e-02 
  2.778914132139e-02 
  2.741928858043e-02 
  2.701653531798e-02 
  2.878100662513e-02 
  2.844370260535e-02 
  2.806149650277e-02 
  2.765591130908e-02 
  2.917542464381e-02 
  2.875377303089e-02 
  2.831888177090e-02 
  2.952654126323e-02 
  2.903216486792e-02 
  2.982143735384e-02 
  2.394695584341e-02 
  2.388734792645e-02 
  2.385910530155e-02 
  2.388465385526e-02 
  2.396757473541e-02 
  2.411878670699e-02 
  2.311690493285e-02 
  2.306839104149e-02 
  2.306834565530e-02 
  2.314038576637e-02 
  2.328574314103e-02 
  2.220844675684e-02 
  2.218531660568e-02 
  2.222838034310e-02 
  2.236040954112e-02 
  2.121286046426e-02 
  2.122614789887e-02 
  2.133052235094e-02 
  2.011193847885e-02 
  2.017414276660e-02 
  1.888319684762e-02 
 -3.945518362505e-07 
 -4.524794228970e-07 
 -3.748385898817e-07 
 -5.109835167218e-07 
 -4.313022186936e-07 
 -1.367148672758e-06 
  1.830804190017e-02 
  1.827083816068e-02 
  1.815209537126e-02 
  1.796485574138e-02 
  1.773244462945e-02 
  2.608345788415e-02 
  2.601468590648e-02 
  2.582337660076e-02 
  2.553716865561e-02 
  2.880954480022e-02 
  2.869675205863e-02 
  2.845893038782e-02 
  2.963183093670e-02 
  2.946949420078e-02 
  2.987585225380e-02 
  2.742943309663e-02 
  2.680332056513e-02 
  2.612184854438e-02 
  2.536406735660e-02 
  2.449989810378e-02 
  2.352375222473e-02 
  2.680223165231e-02 
  2.627575867494e-02 
  2.567616329707e-02 
  2.498468974696e-02 
  2.419403795352e-02 
  2.636442552631e-02 
  2.591508199351e-02 
  2.537559170854e-02 
  2.475084898043e-02 
  2.608685829207e-02 
  2.569430784062e-02 
  2.521448000607e-02 
  2.595282261765e-02 
  2.561012378457e-02 
  2.594674276314e-02 
  3.224299130305e-02 
  3.142436919542e-02 
  3.021258215700e-02 
  2.910439711261e-02 
  2.817584019405e-02 
  2.743062859774e-02 
  3.245005554069e-02 
  3.113097651164e-02 
  2.988335084930e-02 
  2.883637614067e-02 
  2.794622687388e-02 
  3.190822929575e-02 
  3.053864649106e-02 
  2.934671351458e-02 
  2.832071631967e-02 
  3.107942019129e-02 
  2.975674322460e-02 
  2.858404835734e-02 
  3.008456028867e-02 
  2.879542417877e-02 
  2.900730442472e-02 
  3.223976709907e-02 
  3.109378048596e-02 
  2.980377416491e-02 
  2.837106860423e-02 
  2.679473050547e-02 
  2.507488081308e-02 
  3.142508066451e-02 
  3.032310830229e-02 
  2.907954316419e-02 
  2.770869973657e-02 
  2.620098508423e-02 
  3.021156720401e-02 
  2.921932971350e-02 
  2.811692734001e-02 
  2.690291861625e-02 
  2.910555852039e-02 
  2.825242651794e-02 
  2.729666849086e-02 
  2.817491132079e-02 
  2.744515169960e-02 
  2.743437934765e-02 
  3.224042813140e-02 
  3.245050878639e-02 
  3.190748040715e-02 
  3.107979439443e-02 
  3.008361425775e-02 
  2.901105643148e-02 
  3.324281240752e-02 
  3.327183141742e-02 
  3.249849649008e-02 
  3.148746450001e-02 
  3.034655606974e-02 
  3.410222739354e-02 
  3.395368967152e-02 
  3.298456969429e-02 
  3.180916541849e-02 
  3.481886344455e-02 
  3.451283601312e-02 
  3.336979345436e-02 
  3.539307470240e-02 
  3.492819235773e-02 
  3.582184125746e-02 
  2.900352370715e-02 
  2.879463316087e-02 
  2.858311564128e-02 
  2.832024137767e-02 
  2.794527276150e-02 
  2.742824827507e-02 
  2.785249732507e-02 
  2.777285274869e-02 
  2.767626676601e-02 
  2.752785063805e-02 
  2.727497052632e-02 
  2.677780461836e-02 
  2.683450546702e-02 
  2.687291781216e-02 
  2.685823445204e-02 
  2.575245092780e-02 
  2.597318007710e-02 
  2.617681149552e-02 
  2.477673021000e-02 
  2.520621703873e-02 
  2.384858892648e-02 
  2.308754039044e-02 
  2.447439145495e-02 
  2.573947635857e-02 
  2.691098379186e-02 
  2.798963388426e-02 
  2.900207585709e-02 
  2.300562057834e-02 
  2.443372364913e-02 
  2.570179653091e-02 
  2.683513572428e-02 
  2.785262509198e-02 
  2.304768226178e-02 
  2.447854250391e-02 
  2.570834256580e-02 
  2.677748428279e-02 
  2.321453246973e-02 
  2.459739429594e-02 
  2.575279372289e-02 
  2.349063301764e-02 
  2.477653893959e-02 
  2.385014906887e-02 
  2.900574513896e-02 
  2.912353540583e-02 
  2.919747490330e-02 
  2.922999973926e-02 
  2.924711588952e-02 
  2.926828588219e-02 
  3.034761929563e-02 
  3.054413426458e-02 
  3.064745649005e-02 
  3.069328902324e-02 
  3.067205697976e-02 
  3.180753920803e-02 
  3.203383514094e-02 
  3.216919378981e-02 
  3.221446881081e-02 
  3.337158443330e-02 
  3.364713480722e-02 
  3.379424668877e-02 
  3.492728765795e-02 
  3.523119651349e-02 
  3.582621031312e-02 
  2.742688925680e-02 
  2.694354214884e-02 
  2.651787515033e-02 
  2.616290866661e-02 
  2.589492783712e-02 
  2.576803559872e-02 
  2.727518950334e-02 
  2.667948621272e-02 
  2.614541471788e-02 
  2.567872564191e-02 
  2.530657639972e-02 
  2.685795156953e-02 
  2.614730199712e-02 
  2.547847012498e-02 
  2.486024820398e-02 
  2.617706925419e-02 
  2.531434377661e-02 
  2.445114390086e-02 
  2.520602387477e-02 
  2.410917466383e-02 
  2.385026518395e-02 
  2.606464908612e-02 
  2.506462714533e-02 
  2.481380865706e-02 
  2.481491401249e-02 
  2.511671704757e-02 
  2.608784848844e-02 
  2.471550379443e-02 
  2.493016798612e-02 
  2.492990749899e-02 
  2.504903339798e-02 
  2.513642000726e-02 
  2.474000780879e-02 
  2.455288635349e-02 
  2.450742955107e-02 
  2.408655946105e-02 
  2.472638124689e-02 
  2.479124091892e-02 
  2.457867999550e-02 
  2.221644510070e-02 
  2.467940315042e-02 
  3.694368277403e-04 
  2.265693515433e-02 
  2.367801462038e-02 
  2.443303685089e-02 
  2.500722726577e-02 
  2.544072432016e-02 
  2.577078296775e-02 
  2.373954499689e-02 
  2.451075980674e-02 
  2.508069782370e-02 
  2.550921922781e-02 
  2.582154231788e-02 
  2.489545123100e-02 
  2.540249971692e-02 
  2.577212539977e-02 
  2.604340707045e-02 
  2.608710997144e-02 
  2.632400861179e-02 
  2.648588814289e-02 
  2.727414567641e-02 
  2.724513918642e-02 
  2.841736392502e-02 
  2.576764592030e-02 
  2.589498466392e-02 
  2.616281445759e-02 
  2.651796361667e-02 
  2.694343848848e-02 
  2.742739009571e-02 
  2.611962093396e-02 
  2.613920559478e-02 
  2.628502260244e-02 
  2.651357024475e-02 
  2.680239539997e-02 
  2.629304727826e-02 
  2.622022775307e-02 
  2.625644986285e-02 
  2.636390196080e-02 
  2.631021761073e-02 
  2.615449479453e-02 
  2.608687160224e-02 
  2.619298950394e-02 
  2.595260138062e-02 
  2.594734461908e-02 
  1.014329164547e-02 
  1.223797709789e-02 
  1.401527125999e-02 
  1.553582724304e-02 
  1.685353047158e-02 
  1.802050346235e-02 
  1.103871291250e-02 
  1.302402099382e-02 
  1.470001105681e-02 
  1.612912242579e-02 
  1.735757402087e-02 
  1.216548547808e-02 
  1.404493790913e-02 
  1.558160380064e-02 
  1.688203632758e-02 
  1.355348583414e-02 
  1.527619858473e-02 
  1.663940973096e-02 
  1.519369976333e-02 
  1.669412020037e-02 
  1.702954539754e-02 
  1.801913289492e-02 
  1.960468057543e-02 
  2.093212532034e-02 
  2.205075224480e-02 
  2.301384173679e-02 
  2.385311608325e-02 
  1.863571088565e-02 
  2.009971197811e-02 
  2.131378745778e-02 
  2.234127005722e-02 
  2.322441441502e-02 
  1.945368128467e-02 
  2.073394180056e-02 
  2.180299072123e-02 
  2.271473943472e-02 
  2.042971240929e-02 
  2.148772439131e-02 
  2.238317891219e-02 
  2.151264168049e-02 
  2.232980428026e-02 
  2.265802812070e-02 
  2.265561643502e-02 
  2.199814675786e-02 
  2.117663196625e-02 
  2.016522731074e-02 
  1.884551133205e-02 
  1.702993507242e-02 
  2.151192083419e-02 
  2.064505644438e-02 
  1.960360760952e-02 
  1.832176587310e-02 
  1.669415547137e-02 
  2.042957648923e-02 
  1.938725291290e-02 
  1.814365190795e-02 
  1.663928622453e-02 
  1.945333183020e-02 
  1.827586521643e-02 
  1.688187936557e-02 
  1.863511259707e-02 
  1.735768516829e-02 
  1.802036445366e-02 
  1.801912097552e-02 
  1.869210321969e-02 
  1.967106537921e-02 
  2.078822577841e-02 
  2.195151502804e-02 
  2.308946741596e-02 
  1.960486686476e-02 
  2.018944142339e-02 
  2.101873544555e-02 
  2.198465035570e-02 
  2.300554924674e-02 
  2.093233648251e-02 
  2.145314299602e-02 
  2.218816078090e-02 
  2.304761751609e-02 
  2.205053159626e-02 
  2.254174152787e-02 
  2.321468593602e-02 
  2.301406964424e-02 
  2.349092776781e-02 
  2.385162459366e-02 
  2.791002363646e-02 
  2.813300368360e-02 
  2.831216976360e-02 
  2.843831408723e-02 
  2.849010934443e-02 
  2.841795240587e-02 
  2.751108959568e-02 
  2.760200773079e-02 
  2.760820642963e-02 
  2.750177565327e-02 
  2.724504501530e-02 
  2.707760456784e-02 
  2.702180730568e-02 
  2.683883087402e-02 
  2.648604784764e-02 
  2.662864722619e-02 
  2.641945256767e-02 
  2.604327242398e-02 
  2.618329343426e-02 
  2.582162046859e-02 
  2.577031344368e-02 
  2.265909071493e-02 
  2.232956615279e-02 
  2.238343990009e-02 
  2.271458889744e-02 
  2.322457466595e-02 
  2.385240794312e-02 
  2.367778702184e-02 
  2.338166024415e-02 
  2.341218764247e-02 
  2.367606296106e-02 
  2.410973716441e-02 
  2.443334553571e-02 
  2.419521112025e-02 
  2.422118923203e-02 
  2.445170380884e-02 
  2.500712299372e-02 
  2.482300557421e-02 
  2.486075181633e-02 
  2.544092528201e-02 
  2.530691765068e-02 
  2.576938961243e-02 
  2.791072726245e-02 
  2.751084721848e-02 
  2.707743981886e-02 
  2.662831014071e-02 
  2.618300447794e-02 
  2.576860185605e-02 
  2.736063832173e-02 
  2.705250126915e-02 
  2.673248230468e-02 
  2.641548490194e-02 
  2.611948303755e-02 
  2.691468685846e-02 
  2.669722603693e-02 
  2.648663115712e-02 
  2.629328090150e-02 
  2.654423325857e-02 
  2.641756914733e-02 
  2.631027789931e-02 
  2.622959664919e-02 
  2.619327009078e-02 
  2.594723163304e-02 
  1.801959393760e-02 
  1.685383530911e-02 
  1.553574144410e-02 
  1.401498330160e-02 
  1.223806716504e-02 
  1.014377295596e-02 
  1.723554872388e-02 
  1.596763623339e-02 
  1.451586720521e-02 
  1.284260381624e-02 
  1.091235682511e-02 
  1.664623414464e-02 
  1.530359090989e-02 
  1.377327651776e-02 
  1.201993286238e-02 
  1.627121900827e-02 
  1.490232213327e-02 
  1.335584038098e-02 
  1.612607875054e-02 
  1.478210364829e-02 
  1.620327799338e-02 
  2.982189166432e-02 
  2.903205191551e-02 
  2.831902810541e-02 
  2.765576832246e-02 
  2.701658528397e-02 
  2.638542247480e-02 
  2.921560241077e-02 
  2.850935373355e-02 
  2.784325450558e-02 
  2.719732231671e-02 
  2.655693859740e-02 
  2.865349314899e-02 
  2.800529429124e-02 
  2.737303690134e-02 
  2.674505696744e-02 
  2.814921417075e-02 
  2.754681164518e-02 
  2.694094274162e-02 
  2.771658287128e-02 
  2.714173876467e-02 
  2.732816022551e-02 
  2.777638501052e-02 
  2.466250248036e-02 
  2.467641366353e-02 
  2.455514844876e-02 
  2.493171975380e-02 
  2.595388205863e-02 
  2.484586251350e-02 
  2.443304068046e-02 
  2.451993690067e-02 
  2.450398932048e-02 
  2.508765562506e-02 
  2.443723060499e-02 
  2.458625147440e-02 
  2.454361435277e-02 
  2.484422599973e-02 
  2.445644612924e-02 
  2.439158004005e-02 
  2.492425513843e-02 
  2.476361130485e-02 
  2.535257146609e-02 
  2.527791789346e-02 
  3.120546662170e-02 
  3.070383987318e-02 
  3.028178107429e-02 
  2.993940918577e-02 
  2.967362791832e-02 
  2.944866913675e-02 
  3.144739383326e-02 
  3.090466393573e-02 
  3.045462510024e-02 
  3.009703422781e-02 
  2.981936075808e-02 
  3.163079248966e-02 
  3.105404381047e-02 
  3.058528250400e-02 
  3.021552462950e-02 
  3.174888518255e-02 
  3.115022774721e-02 
  3.067139223327e-02 
  3.180252222239e-02 
  3.119411027559e-02 
  3.178974701310e-02 
  3.120500699047e-02 
  3.104172934021e-02 
  3.081891807879e-02 
  3.053757416497e-02 
  3.020170304153e-02 
  2.982093882270e-02 
  3.023875161682e-02 
  3.004276527551e-02 
  2.980455495743e-02 
  2.952758541003e-02 
  2.921566645133e-02 
  2.940590379613e-02 
  2.918238171318e-02 
  2.893058225432e-02 
  2.865329408774e-02 
  2.866903265287e-02 
  2.842051834407e-02 
  2.814928627130e-02 
  2.799209090756e-02 
  2.771635204759e-02 
  2.732891177618e-02 
  2.790949088655e-02 
  2.854797739333e-02 
  2.935141816511e-02 
  3.039458207168e-02 
  3.176459070877e-02 
  3.357480558147e-02 
  2.813288705884e-02 
  2.883778998751e-02 
  2.976782799437e-02 
  3.102177007254e-02 
  3.271343795490e-02 
  2.831190921364e-02 
  2.910985552512e-02 
  3.021173670978e-02 
  3.174853065210e-02 
  2.843818252236e-02 
  2.935935640160e-02 
  3.069335721823e-02 
  2.849015466013e-02 
  2.957277130723e-02 
  2.841706484875e-02 
  3.357484306423e-02 
  3.176467087068e-02 
  3.039463459829e-02 
  2.935148612254e-02 
  2.854803620911e-02 
  2.790949609161e-02 
  3.260723616189e-02 
  3.115358009347e-02 
  3.000743304011e-02 
  2.909569781848e-02 
  2.835271335502e-02 
  3.177694160412e-02 
  3.057925724918e-02 
  2.959736603883e-02 
  2.878060110124e-02 
  3.104986405895e-02 
  3.003794929936e-02 
  2.917492923524e-02 
  3.040456857425e-02 
  2.952594352116e-02 
  2.982037331263e-02 
  3.697260696988e-02 
  3.656310589629e-02 
  3.601078890572e-02 
  3.531950152943e-02 
  3.449881789416e-02 
  3.357668253244e-02 
  3.489083602043e-02 
  3.445794149059e-02 
  3.392217487607e-02 
  3.329844318147e-02 
  3.260707544559e-02 
  3.321463375650e-02 
  3.279468473277e-02 
  3.231152035681e-02 
  3.177724220586e-02 
  3.186193175964e-02 
  3.147532858554e-02 
  3.104964712022e-02 
  3.075638942892e-02 
  3.040457895108e-02 
  2.981926887056e-02 
  3.518712603061e-02 
  3.398666865761e-02 
  3.233640743004e-02 