# vtk DataFile Version 2
NuDG++ 2D simulation
ASCII
DATASET UNSTRUCTURED_GRID

POINTS 7854 double
 -1.656250060000e-01  -2.000000030000e-01  0.0
 -1.725000054000e-01  -1.908888817000e-01  0.0
 -1.793750048000e-01  -1.817777604000e-01  0.0
 -1.862500042000e-01  -1.726666391000e-01  0.0
 -1.931250036000e-01  -1.635555178000e-01  0.0
 -2.000000030000e-01  -1.544443965000e-01  0.0
 -1.725000054000e-01  -2.000000030000e-01  0.0
 -1.793750048000e-01  -1.908888817000e-01  0.0
 -1.862500042000e-01  -1.817777604000e-01  0.0
 -1.931250036000e-01  -1.726666391000e-01  0.0
 -2.000000030000e-01  -1.635555178000e-01  0.0
 -1.793750048000e-01  -2.000000030000e-01  0.0
 -1.862500042000e-01  -1.908888817000e-01  0.0
 -1.931250036000e-01  -1.817777604000e-01  0.0
 -2.000000030000e-01  -1.726666391000e-01  0.0
 -1.862500042000e-01  -2.000000030000e-01  0.0
 -1.931250036000e-01  -1.908888817000e-01  0.0
 -2.000000030000e-01  -1.817777604000e-01  0.0
 -1.931250036000e-01  -2.000000030000e-01  0.0
 -2.000000030000e-01  -1.908888817000e-01  0.0
 -2.000000030000e-01  -2.000000030000e-01  0.0
 -6.428571790000e-02  -1.700000018000e-01  0.0
 -7.080357372400e-02  -1.760000020400e-01  0.0
 -7.732142954800e-02  -1.820000022800e-01  0.0
 -8.383928537200e-02  -1.880000025200e-01  0.0
 -9.035714119600e-02  -1.940000027600e-01  0.0
 -9.687499702000e-02  -2.000000030000e-01  0.0
 -6.392857432000e-02  -1.760000020400e-01  0.0
 -7.044643014400e-02  -1.820000022800e-01  0.0
 -7.696428596800e-02  -1.880000025200e-01  0.0
 -8.348214179200e-02  -1.940000027600e-01  0.0
 -8.999999761600e-02  -2.000000030000e-01  0.0
 -6.357143074000e-02  -1.820000022800e-01  0.0
 -7.008928656400e-02  -1.880000025200e-01  0.0
 -7.660714238800e-02  -1.940000027600e-01  0.0
 -8.312499821200e-02  -2.000000030000e-01  0.0
 -6.321428716000e-02  -1.880000025200e-01  0.0
 -6.973214298400e-02  -1.940000027600e-01  0.0
 -7.624999880800e-02  -2.000000030000e-01  0.0
 -6.285714358000e-02  -1.940000027600e-01  0.0
 -6.937499940400e-02  -2.000000030000e-01  0.0
 -6.250000000000e-02  -2.000000030000e-01  0.0
 -2.000000030000e-01  -1.544443965000e-01  0.0
 -1.900000036000e-01  -1.478412374800e-01  0.0
 -1.800000042000e-01  -1.412380784600e-01  0.0
 -1.700000048000e-01  -1.346349194400e-01  0.0
 -1.600000054000e-01  -1.280317604200e-01  0.0
 -1.500000060000e-01  -1.214286014000e-01  0.0
 -2.000000030000e-01  -1.453332975600e-01  0.0
 -1.900000036000e-01  -1.387301385400e-01  0.0
 -1.800000042000e-01  -1.321269795200e-01  0.0
 -1.700000048000e-01  -1.255238205000e-01  0.0
 -1.600000054000e-01  -1.189206614800e-01  0.0
 -2.000000030000e-01  -1.362221986200e-01  0.0
 -1.900000036000e-01  -1.296190396000e-01  0.0
 -1.800000042000e-01  -1.230158805800e-01  0.0
 -1.700000048000e-01  -1.164127215600e-01  0.0
 -2.000000030000e-01  -1.271110996800e-01  0.0
 -1.900000036000e-01  -1.205079406600e-01  0.0
 -1.800000042000e-01  -1.139047816400e-01  0.0
 -2.000000030000e-01  -1.180000007400e-01  0.0
 -1.900000036000e-01  -1.113968417200e-01  0.0
 -2.000000030000e-01  -1.088889018000e-01  0.0
 -1.500000060000e-01  -1.214286014000e-01  0.0
 -1.600000054000e-01  -1.280317604200e-01  0.0
 -1.700000048000e-01  -1.346349194400e-01  0.0
 -1.800000042000e-01  -1.412380784600e-01  0.0
 -1.900000036000e-01  -1.478412374800e-01  0.0
 -2.000000030000e-01  -1.544443965000e-01  0.0
 -1.500000060000e-01  -1.311428814800e-01  0.0
 -1.600000054000e-01  -1.377460405000e-01  0.0
 -1.700000048000e-01  -1.443491995200e-01  0.0
 -1.800000042000e-01  -1.509523585400e-01  0.0
 -1.900000036000e-01  -1.575555175600e-01  0.0
 -1.500000060000e-01  -1.408571615600e-01  0.0
 -1.600000054000e-01  -1.474603205800e-01  0.0
 -1.700000048000e-01  -1.540634796000e-01  0.0
 -1.800000042000e-01  -1.606666386200e-01  0.0
 -1.500000060000e-01  -1.505714416400e-01  0.0
 -1.600000054000e-01  -1.571746006600e-01  0.0
 -1.700000048000e-01  -1.637777596800e-01  0.0
 -1.500000060000e-01  -1.602857217200e-01  0.0
 -1.600000054000e-01  -1.668888807400e-01  0.0
 -1.500000060000e-01  -1.700000018000e-01  0.0
 -1.500000060000e-01  -7.285714149000e-02  0.0
 -1.600000054000e-01  -8.006349355200e-02  0.0
 -1.700000048000e-01  -8.726984561400e-02  0.0
 -1.800000042000e-01  -9.447619767600e-02  0.0
 -1.900000036000e-01  -1.016825497380e-01  0.0
 -2.000000030000e-01  -1.088889018000e-01  0.0
 -1.500000060000e-01  -8.257143347200e-02  0.0
 -1.600000054000e-01  -8.977778553400e-02  0.0
 -1.700000048000e-01  -9.698413759600e-02  0.0
 -1.800000042000e-01  -1.041904896580e-01  0.0
 -1.900000036000e-01  -1.113968417200e-01  0.0
 -1.500000060000e-01  -9.228572545400e-02  0.0
 -1.600000054000e-01  -9.949207751600e-02  0.0
 -1.700000048000e-01  -1.066984295780e-01  0.0
 -1.800000042000e-01  -1.139047816400e-01  0.0
 -1.500000060000e-01  -1.020000174360e-01  0.0
 -1.600000054000e-01  -1.092063694980e-01  0.0
 -1.700000048000e-01  -1.164127215600e-01  0.0
 -1.500000060000e-01  -1.117143094180e-01  0.0
 -1.600000054000e-01  -1.189206614800e-01  0.0
 -1.500000060000e-01  -1.214286014000e-01  0.0
  1.832975030000e+00  -4.625000060000e-02  0.0
  1.841380024000e+00  -7.700000108000e-02  0.0
  1.849785018000e+00  -1.077500015600e-01  0.0
  1.858190012000e+00  -1.385000020400e-01  0.0
  1.866595006000e+00  -1.692500025200e-01  0.0
  1.875000000000e+00  -2.000000030000e-01  0.0
  1.866380024000e+00  -5.649999976400e-02  0.0
  1.874785018000e+00  -8.725000024400e-02  0.0
  1.883190012000e+00  -1.180000007240e-01  0.0
  1.891595006000e+00  -1.487500012040e-01  0.0
  1.900000000000e+00  -1.795000016840e-01  0.0
  1.899785018000e+00  -6.674999892800e-02  0.0
  1.908190012000e+00  -9.749999940800e-02  0.0
  1.916595006000e+00  -1.282499998880e-01  0.0
  1.925000000000e+00  -1.590000003680e-01  0.0
  1.933190012000e+00  -7.699999809200e-02  0.0
  1.941595006000e+00  -1.077499985720e-01  0.0
  1.950000000000e+00  -1.384999990520e-01  0.0
  1.966595006000e+00  -8.724999725600e-02  0.0
  1.975000000000e+00  -1.179999977360e-01  0.0
  2.000000000000e+00  -9.749999642000e-02  0.0
 -1.500000060000e-01  -1.700000018000e-01  0.0
 -1.444000050800e-01  -1.630000025200e-01  0.0
 -1.388000041600e-01  -1.560000032400e-01  0.0
 -1.332000032400e-01  -1.490000039600e-01  0.0
 -1.276000023200e-01  -1.420000046800e-01  0.0
 -1.220000014000e-01  -1.350000054000e-01  0.0
 -1.500000060000e-01  -1.602857217200e-01  0.0
 -1.444000050800e-01  -1.532857224400e-01  0.0
 -1.388000041600e-01  -1.462857231600e-01  0.0
 -1.332000032400e-01  -1.392857238800e-01  0.0
 -1.276000023200e-01  -1.322857246000e-01  0.0
 -1.500000060000e-01  -1.505714416400e-01  0.0
 -1.444000050800e-01  -1.435714423600e-01  0.0
 -1.388000041600e-01  -1.365714430800e-01  0.0
 -1.332000032400e-01  -1.295714438000e-01  0.0
 -1.500000060000e-01  -1.408571615600e-01  0.0
 -1.444000050800e-01  -1.338571622800e-01  0.0
 -1.388000041600e-01  -1.268571630000e-01  0.0
 -1.500000060000e-01  -1.311428814800e-01  0.0
 -1.444000050800e-01  -1.241428822000e-01  0.0
 -1.500000060000e-01  -1.214286014000e-01  0.0
  2.849999964000e-01  -2.333333530000e-02  0.0
  2.844999968800e-01  -4.666666836000e-02  0.0
  2.839999973600e-01  -7.000000142000e-02  0.0
  2.834999978400e-01  -9.333333448000e-02  0.0
  2.829999983200e-01  -1.166666675400e-01  0.0
  2.824999988000e-01  -1.400000006000e-01  0.0
  2.979999959200e-01  -3.266666830000e-02  0.0
  2.974999964000e-01  -5.600000136000e-02  0.0
  2.969999968800e-01  -7.933333442000e-02  0.0
  2.964999973600e-01  -1.026666674800e-01  0.0
  2.959999978400e-01  -1.260000005400e-01  0.0
  3.109999954400e-01  -4.200000130000e-02  0.0
  3.104999959200e-01  -6.533333436000e-02  0.0
  3.099999964000e-01  -8.866666742000e-02  0.0
  3.094999968800e-01  -1.120000004800e-01  0.0
  3.239999949600e-01  -5.133333430000e-02  0.0
  3.234999954400e-01  -7.466666736000e-02  0.0
  3.229999959200e-01  -9.800000042000e-02  0.0
  3.369999944800e-01  -6.066666730000e-02  0.0
  3.364999949600e-01  -8.400000036000e-02  0.0
  3.499999940000e-01  -7.000000030000e-02  0.0
 -1.071429029000e-01  -1.700000018000e-01  0.0
 -9.857146590000e-02  -1.700000018000e-01  0.0
 -9.000002890000e-02  -1.700000018000e-01  0.0
 -8.142859190000e-02  -1.700000018000e-01  0.0
 -7.285715490000e-02  -1.700000018000e-01  0.0
 -6.428571790000e-02  -1.700000018000e-01  0.0
 -1.037143230360e-01  -1.630000025200e-01  0.0
 -9.514288603600e-02  -1.630000025200e-01  0.0
 -8.657144903600e-02  -1.630000025200e-01  0.0
 -7.800001203600e-02  -1.630000025200e-01  0.0
 -6.942857503600e-02  -1.630000025200e-01  0.0
 -1.002857431720e-01  -1.560000032400e-01  0.0
 -9.171430617200e-02  -1.560000032400e-01  0.0
 -8.314286917200e-02  -1.560000032400e-01  0.0
 -7.457143217200e-02  -1.560000032400e-01  0.0
 -9.685716330800e-02  -1.490000039600e-01  0.0
 -8.828572630800e-02  -1.490000039600e-01  0.0
 -7.971428930800e-02  -1.490000039600e-01  0.0
 -9.342858344400e-02  -1.420000046800e-01  0.0
 -8.485714644400e-02  -1.420000046800e-01  0.0
 -9.000000358000e-02  -1.350000054000e-01  0.0
 -1.312499940000e-01  -2.000000030000e-01  0.0
 -1.264285757800e-01  -1.940000027600e-01  0.0
 -1.216071575600e-01  -1.880000025200e-01  0.0
 -1.167857393400e-01  -1.820000022800e-01  0.0
 -1.119643211200e-01  -1.760000020400e-01  0.0
 -1.071429029000e-01  -1.700000018000e-01  0.0
 -1.349999964000e-01  -1.940000027600e-01  0.0
 -1.301785781800e-01  -1.880000025200e-01  0.0
 -1.253571599600e-01  -1.820000022800e-01  0.0
 -1.205357417400e-01  -1.760000020400e-01  0.0
 -1.157143235200e-01  -1.700000018000e-01  0.0
 -1.387499988000e-01  -1.880000025200e-01  0.0
 -1.339285805800e-01  -1.820000022800e-01  0.0
 -1.291071623600e-01  -1.760000020400e-01  0.0
 -1.242857441400e-01  -1.700000018000e-01  0.0
 -1.425000012000e-01  -1.820000022800e-01  0.0
 -1.376785829800e-01  -1.760000020400e-01  0.0
 -1.328571647600e-01  -1.700000018000e-01  0.0
 -1.462500036000e-01  -1.760000020400e-01  0.0
 -1.414285853800e-01  -1.700000018000e-01  0.0
 -1.500000060000e-01  -1.700000018000e-01  0.0
[...]
POINT_DATA 7854
SCALARS field1 double 1
LOOKUP_TABLE default
  1.832108879431e-05 
  4.495541070351e-03 
  4.222556408941e-03 
  4.129120456667e-03 
  4.517527798817e-03 
  5.208783040570e-03 
 -5.581734777315e-07 
  3.808700053683e-03 
  3.510315711770e-03 
  3.557055069204e-03 
  4.254831206798e-03 
 -2.669152161040e-06 
  2.939387029749e-03 
  2.749107371888e-03 
  3.275416823102e-03 
  2.166943922109e-05 
  1.839445564704e-03 
  2.238883527571e-03 
  1.106899829237e-06 
  1.130828065193e-03 
  6.426126020741e-06 
  9.643680095557e-03 
  9.467247308855e-03 
  9.252497985900e-03 
  8.909118478914e-03 
  7.246761149526e-03 
 -1.442952139893e-07 
  9.624912025782e-03 
  9.418006248511e-03 
  9.075567637750e-03 
  7.405159816867e-03 
 -5.840897181526e-07 
  9.570339917974e-03 
  9.231890555009e-03 
  7.549091258778e-03 
 -4.020495826997e-07 
  9.377221497383e-03 
  7.684512778024e-03 
 -5.649978226335e-07 
  7.807660130866e-03 
 -5.157387830624e-07 
 -5.446063216250e-07 
  5.187462955971e-03 
  6.084478067958e-03 
  6.861758232976e-03 
  7.477150428277e-03 
  8.007797964643e-03 
  8.429798595263e-03 
  6.063695994017e-03 
  6.804798969855e-03 
  7.486919285833e-03 
  8.004570458562e-03 
  8.449631607381e-03 
  6.899844349115e-03 
  7.529839043093e-03 
  8.049614320849e-03 
  8.512085393701e-03 
  7.679634335230e-03 
  8.182998533971e-03 
  8.617923687888e-03 
  8.410129676574e-03 
  8.821115688559e-03 
  9.076007760003e-03 
  8.432983457525e-03 
  8.008932528814e-03 
  7.481393319549e-03 
  6.858862863176e-03 
  6.087935903528e-03 
  5.186953011528e-03 
  8.031310578748e-03 
  7.591227634441e-03 
  6.974986786856e-03 
  6.183126141167e-03 
  5.188735778464e-03 
  7.706306764106e-03 
  7.164184984543e-03 
  6.431708728532e-03 
  5.541087807490e-03 
  7.389500740978e-03 
  6.736612828013e-03 
  5.918519009648e-03 
  7.072616726461e-03 
  6.339247487373e-03 
  6.806661226547e-03 
  9.850167190627e-03 
  9.831638413770e-03 
  9.788619056570e-03 
  9.666015488978e-03 
  9.464376036740e-03 
  9.078397946410e-03 
  9.575643561847e-03 
  9.554180339681e-03 
  9.412147045523e-03 
  9.170624382369e-03 
  8.820734791991e-03 
  9.354188807000e-03 
  9.222452786442e-03 
  8.962107609346e-03 
  8.621244708794e-03 
  9.128800418109e-03 
  8.855439143638e-03 
  8.508132883891e-03 
  8.846133447086e-03 
  8.448657850067e-03 
  8.430946944286e-03 
  9.931476399156e-03 
  8.400914176808e-03 
  8.772777641933e-03 
  8.219309976663e-03 
  9.350066655169e-03 
  9.741575216738e-04 
  8.860491655776e-03 
  8.834752505488e-03 
  8.614045047785e-03 
  8.370301386049e-03 
  8.670700050340e-03 
  8.875752825698e-03 
  8.798416346021e-03 
  8.547712517558e-03 
  8.468443475529e-03 
  8.827897489855e-03 
  8.710421144932e-03 
  8.600674201446e-03 
  8.969887994788e-03 
  8.338841309944e-03 
  9.837284643670e-03 
  6.802863398546e-03 
  7.235064231182e-03 
  7.638118320847e-03 
  7.985387384336e-03 
  8.307885991910e-03 
  8.645341557164e-03 
  7.074082777190e-03 
  7.508427914310e-03 
  7.886841564168e-03 
  8.237471128043e-03 
  8.537527772218e-03 
  7.391003081626e-03 
  7.796739340827e-03 
  8.162166041090e-03 
  8.493138565707e-03 
  7.709173651034e-03 
  8.109486178834e-03 
  8.443573586731e-03 
  8.036829505252e-03 
  8.434773024460e-03 
  8.434421674881e-03 
  8.993319020743e-03 
  8.785012054259e-03 
  8.845129134073e-03 
  8.950283181867e-03 
  8.859914621156e-03 
  9.692776411649e-03 
  8.842723469705e-03 
  8.818435759702e-03 
  8.883760604726e-03 
  8.894727488360e-03 
  8.959650916724e-03 
  8.855457751578e-03 
  8.849902872142e-03 
  8.892655017707e-03 
  8.887746960728e-03 
  8.854076903937e-03 
  8.869900722281e-03 
  8.842309339116e-03 
  8.840228953187e-03 
  8.913775513853e-03 
  8.706318783374e-03 
  8.515384548424e-03 
  8.762211423625e-03 
  9.005530269582e-03 
  9.231045940894e-03 
  9.439360170291e-03 
  9.643099125265e-03 
  8.682760997573e-03 
  8.925872165549e-03 
  9.151601601728e-03 
  9.374400715715e-03 
  9.581375481771e-03 
  8.850906002154e-03 
  9.081834335982e-03 
  9.301707775249e-03 
  9.515872706884e-03 
  9.018410996731e-03 
  9.239460661291e-03 
  9.451314167337e-03 
  9.187629766826e-03 
  9.401357411829e-03 
  9.355060997121e-03 
 -4.651009885813e-06 
  6.223251924838e-03 
  7.701518442444e-03 
  8.050984087668e-03 
  8.295220724299e-03 
  8.522609118288e-03 
  5.906047461276e-03 
  7.343210723163e-03 
  7.722477135094e-03 
  8.002965351194e-03 
  8.218339773371e-03 
  6.937697944728e-03 
  7.351036197258e-03 
  7.666316453595e-03 
  7.913431398251e-03 
  6.920838606003e-03 
  7.290810407082e-03 
  7.575583933211e-03 
  6.855614011737e-03 
  7.202187025387e-03 
  6.795873891358e-03 
  8.635209749562e-03 
  8.757781581304e-03 
  8.904285146533e-03 
  9.049486307886e-03 
  9.201615994810e-03 
  9.353242447598e-03 
  8.771466009815e-03 
  8.900680990927e-03 
  9.036178338345e-03 
  9.173559003786e-03 
  9.315594193142e-03 
  8.923947840231e-03 
  9.035046156509e-03 
  9.156029293392e-03 
  9.284966768071e-03 
  9.061141555515e-03 
  9.155900088302e-03 
  9.261480058117e-03 
  9.173049788786e-03 
  9.257868504791e-03 
  9.268600258535e-03 
  9.353992349514e-03 
  9.201448702251e-03 
  9.049850705883e-03 
  8.903972807486e-03 
  8.757957443443e-03 
  8.635177774707e-03 
  9.186972905571e-03 
  9.030919545307e-03 
  8.869704082135e-03 
  8.710049218744e-03 
  8.537052566646e-03 
  9.017843549777e-03 
  8.854350539882e-03 
  8.681621594234e-03 
  8.502047385663e-03 
  8.850551877836e-03 
  8.673922632799e-03 
  8.486349834064e-03 
  8.681989683222e-03 
  8.489484105533e-03 
  8.517571554984e-03 
  9.905103743613e-03 
  9.726241370577e-03 
  9.581781171425e-03 
  9.464309959251e-03 
  9.362183378831e-03 
  9.268206680326e-03 
  9.846896577472e-03 
  9.671527919142e-03 
  9.518206681120e-03 
  9.382129445280e-03 
  9.257762458002e-03 
  9.756315803579e-03 
  9.578006986340e-03 
  9.415747085816e-03 
  9.261826968393e-03 
  9.639091075865e-03 
  9.458380999895e-03 
  9.285155534192e-03 
  9.504258966305e-03 
  9.315637026058e-03 
  9.354490224365e-03 
  8.638362414531e-03 
  8.772172043886e-03 
  8.924313107391e-03 
  9.061957549407e-03 
  9.172734363180e-03 
  9.268787048006e-03 
  8.539532748101e-03 
  8.723820407454e-03 
  8.883259977745e-03 
  9.025644614526e-03 
  9.152378376441e-03 
  8.491380109963e-03 
  8.681553533406e-03 
  8.862811970244e-03 
  9.013708724168e-03 
  8.445344440938e-03 
  8.664080896012e-03 
  8.867167281524e-03 
  8.434571038412e-03 
  8.676755351286e-03 
  8.437521602012e-03 
  9.904949665804e-03 
  9.847151590426e-03 
  9.756268634986e-03 
  9.639115400127e-03 
  9.503878012132e-03 
  9.355899617702e-03 
  1.004362047319e-02 
  9.955781594869e-03 
  9.841459693936e-03 
  9.710611192679e-03 
  9.569591499979e-03 
  1.017737239744e-02 
  1.005944132994e-02 
  9.925644962520e-03 
  9.782948366498e-03 
  1.030232234592e-02 
  1.015656420874e-02 
  1.000337871579e-02 
  1.041392618761e-02 
  1.024180682733e-02 
  1.050999062711e-02 
  8.519846724454e-03 
  8.488925409139e-03 
  8.486381029936e-03 
  8.502300272399e-03 
  8.535875620173e-03 
  8.639811877442e-03 
  8.218161850957e-03 
  8.210172248624e-03 
  8.217219560421e-03 
  8.250381359090e-03 
  8.309262138092e-03 
  7.912367488379e-03 
  7.907347022681e-03 
  7.936047175628e-03 
  7.986188976915e-03 
  7.575634588142e-03 
  7.588080376980e-03 
  7.638314037803e-03 
  7.201034716053e-03 
  7.235828955789e-03 
  6.798952099096e-03 
 -2.594467505441e-07 
 -3.985733667462e-07 
 -4.599256341666e-07 
 -5.505388381618e-07 
 -5.836618133352e-07 
 -9.051035802593e-07 
  8.484971662306e-03 
  8.481602131499e-03 
  8.439777926084e-03 
  8.368627657621e-03 
  8.266292007048e-03 
  1.021737902988e-02 
  1.018599595915e-02 
  1.012780652526e-02 
  1.004212083510e-02 
  1.041855430206e-02 
  1.038601744523e-02 
  1.032000093755e-02 
  1.048083390064e-02 
  1.044035313953e-02 
  1.051209478530e-02 
  9.847572569777e-03 
  9.579011288509e-03 
  9.355154991614e-03 
  9.127246520772e-03 
  8.841758574655e-03 
  8.436277679293e-03 
  9.613423641786e-03 
  9.423399900492e-03 
  9.209460025194e-03 
  8.964897682508e-03 
  8.677448681831e-03 
  9.455422728117e-03 
  9.290094860092e-03 
  9.094995756622e-03 
  8.867190778923e-03 
  9.364006801298e-03 
  9.199296161010e-03 
  9.012681746807e-03 
  9.291380064086e-03 
  9.152725962628e-03 
  9.268113981385e-03 
  1.168456400381e-02 
  1.128661899128e-02 
  1.084357212512e-02 
  1.046297267161e-02 
  1.011629849549e-02 
  9.844039648509e-03 
  1.167408786099e-02 
  1.116357412264e-02 
  1.071611222426e-02 
  1.035702167935e-02 
  1.009075927172e-02 
  1.142782228738e-02 
  1.095585910201e-02 
  1.053506105999e-02 
  1.019753427050e-02 
  1.113675289232e-02 
  1.068259336586e-02 
  1.025415818324e-02 
  1.078261459802e-02 
  1.032727321618e-02 
  1.044860494846e-02 
  1.167786025655e-02 
  1.126333631702e-02 
  1.079558735706e-02 
  1.027226193606e-02 
  9.699281796541e-03 
  9.078625959867e-03 
  1.128729746036e-02 
  1.090874916904e-02 
  1.047440530021e-02 
  9.993678557283e-03 
  9.466420137159e-03 
  1.083942123207e-02 
  1.047666842087e-02 
  1.010240733767e-02 
  9.668244491599e-03 
  1.046817045372e-02 
  1.014571875109e-02 
  9.787020378130e-03 
  1.011513007541e-02 
  9.829690454769e-03 
  9.852012170935e-03 
  1.167815459758e-02 
  1.167733274501e-02 
  1.142847432609e-02 
  1.113705143574e-02 
  1.078072477585e-02 
  1.045409819109e-02 
  1.203600199315e-02 
  1.196851273087e-02 
  1.163752355894e-02 
  1.129756618126e-02 
  1.088897888446e-02 
  1.234874418022e-02 
  1.220225080881e-02 
  1.180078030556e-02 
  1.142249390884e-02 
  1.261143733059e-02 
  1.239930215331e-02 
  1.194620629109e-02 
  1.281913342714e-02 
  1.253398507767e-02 
  1.297813824058e-02 
  1.044342877234e-02 
  1.032763004515e-02 
  1.025359181714e-02 
  1.019486757493e-02 
  1.008456668165e-02 
  9.845321414959e-03 
  1.003417454376e-02 
  9.996646536795e-03 
  9.951266461352e-03 
  9.895052775357e-03 
  9.805050225053e-03 
  9.659869947108e-03 
  9.670884203863e-03 
  9.674357682734e-03 
  9.659850493879e-03 
  9.312068054623e-03 
  9.369694310695e-03 
  9.416881745583e-03 
  8.978010593111e-03 
  9.107572949690e-03 
  8.636489550941e-03 
  8.393466501534e-03 
  8.890648381991e-03 
  9.313488213038e-03 
  9.719815962404e-03 
  1.008520881274e-02 
  1.044172600154e-02 
  8.400884101816e-03 
  8.873870619172e-03 
  9.305302020346e-03 
  9.686150094899e-03 
  1.003437504818e-02 
  8.408182478441e-03 
  8.887874478716e-03 
  9.302892103891e-03 
  9.659538461656e-03 
  8.459414018371e-03 
  8.926014152857e-03 
  9.312056135969e-03 
  8.547771735676e-03 
  8.977354718555e-03 
  8.639480187266e-03 
  1.044257931145e-02 
  1.051343316881e-02 
  1.051483424971e-02 
  1.051168401657e-02 
  1.052656064030e-02 
  1.054658504519e-02 
  1.089097098530e-02 
  1.097152133845e-02 
  1.100280530693e-02 
  1.102252567588e-02 
  1.100024562276e-02 
  1.141737051124e-02 
  1.148090995290e-02 
  1.153207540340e-02 
  1.155091299430e-02 
  1.195056127593e-02 
  1.204808218348e-02 
  1.209482537042e-02 
  1.253204986386e-02 
  1.264896044985e-02 
  1.298951482049e-02 
  9.845321780075e-03 
  9.673963091713e-03 
  9.520558480361e-03 
  9.392270729186e-03 
  9.295010817415e-03 
  9.239964741359e-03 
  9.804521649879e-03 
  9.586977404037e-03 
  9.398472630042e-03 
  9.235919881799e-03 
  9.102728872768e-03 
  9.659352366793e-03 
  9.409409629646e-03 
  9.176137576497e-03 
  8.968816038272e-03 
  9.417994645276e-03 
  9.128781095707e-03 
  8.842766969729e-03 
  9.107014098531e-03 
  8.734820144986e-03 
  8.639599301812e-03 
  9.648602596225e-03 
  9.113585588131e-03 
  9.014098108620e-03 
  8.969440738263e-03 
  8.982517435394e-03 
  9.317881738067e-03 
  8.718488915485e-03 
  8.949777939739e-03 
  8.926412228498e-03 
  8.972534478915e-03 
  8.869399148553e-03 
  8.908940357573e-03 
  8.787040411689e-03 
  8.807756398147e-03 
  8.640385284674e-03 
  8.745026845402e-03 
  8.721964751635e-03 
  8.728101132645e-03 
  8.590264870856e-03 
  9.094712331715e-03 
  5.859632003884e-04 
  8.222246919720e-03 
  8.560275540102e-03 
  8.806298513188e-03 
  8.994032053806e-03 
  9.136885008787e-03 
  9.242691702562e-03 
  8.575093982159e-03 
  8.826705877797e-03 
  9.013537275010e-03 
  9.154007198920e-03 
  9.256133656309e-03 
  8.950423946229e-03 
  9.113997285750e-03 
  9.234871668837e-03 
  9.323782384530e-03 
  9.335689381232e-03 
  9.411436143475e-03 
  9.463939720385e-03 
  9.719240566543e-03 
  9.709061588654e-03 
  1.008816658749e-02 
  9.239315821797e-03 
  9.295121673966e-03 
  9.392125978774e-03 
  9.520485071440e-03 
  9.673483842408e-03 
  9.846333859390e-03 
  9.357158628496e-03 
  9.368932208075e-03 
  9.429627388383e-03 
  9.511535103201e-03 
  9.613623016772e-03 
  9.404639518587e-03 
  9.394083393826e-03 
  9.412549864793e-03 
  9.455005903307e-03 
  9.404746051881e-03 
  9.368172905610e-03 
  9.362143303957e-03 
  9.365478951794e-03 
  9.290873217491e-03 
  9.267868136087e-03 
  4.134373758357e-03 
  4.829649434319e-03 
  5.409186163951e-03 
  5.906593661716e-03 
  6.338850055766e-03 
  6.727534938213e-03 
  4.469912607268e-03 
  5.100346787234e-03 
  5.637100206290e-03 
  6.101262548485e-03 
  6.501896638287e-03 
  4.879139965869e-03 
  5.452738982222e-03 
  5.931201536899e-03 
  6.347893201977e-03 
  5.380501295869e-03 
  5.874743934877e-03 
  6.283171258896e-03 
  5.967220530359e-03 
  6.357388364261e-03 
  6.609323370890e-03 
  6.727336730767e-03 
  7.246984436980e-03 
  7.686281172924e-03 
  8.056970410623e-03 
  8.377274783424e-03 
  8.644250188036e-03 
  6.921991339919e-03 
  7.404590726944e-03 
  7.806736247603e-03 
  8.146816358609e-03 
  8.441736542655e-03 
  7.187209605098e-03 
  7.608969896181e-03 
  7.963105395207e-03 
  8.264408419266e-03 
  7.505054988825e-03 
  7.852518908511e-03 
  8.149732173504e-03 
  7.855688151812e-03 
  8.125119462479e-03 
  8.222758554534e-03 
  8.221323045465e-03 
  8.011567898568e-03 
  7.748953169433e-03 
  7.442181438121e-03 
  7.075663111929e-03 
  6.609337421947e-03 
  7.854908333401e-03 
  7.570942375483e-03 
  7.238288050893e-03 
  6.839633758814e-03 
  6.357442299040e-03 
  7.504787837928e-03 
  7.163003155594e-03 
  6.760762937093e-03 
  6.283078967005e-03 
  7.186815615642e-03 
  6.801278027887e-03 
  6.347845814125e-03 
  6.921517918237e-03 
  6.501942201664e-03 
  6.727580091815e-03 
  6.727938697907e-03 
  6.952629576007e-03 
  7.281942718824e-03 
  7.653822750963e-03 
  8.047688403771e-03 
  8.399149538363e-03 
  7.247201240830e-03 
  7.448431640586e-03 
  7.727742576074e-03 
  8.053372652823e-03 
  8.400398275124e-03 
  7.686585098783e-03 
  7.867189214617e-03 
  8.116955568785e-03 
  8.408342961794e-03 
  8.056901634585e-03 
  8.229190319372e-03 
  8.459598148031e-03 
  8.377649607734e-03 
  8.547489179515e-03 
  8.642579827961e-03 
  9.904688948590e-03 
  9.982746235979e-03 
  1.004495258850e-02 
  1.009001747481e-02 
  1.011059523379e-02 
  1.008856668587e-02 
  9.781684180807e-03 
  9.816802376196e-03 
  9.822458662081e-03 
  9.790035322848e-03 
  9.709007341395e-03 
  9.648776886538e-03 
  9.634277448358e-03 
  9.577634295269e-03 
  9.464038633824e-03 
  9.511982027368e-03 
  9.444600158064e-03 
  9.323667605735e-03 
  9.373997617451e-03 
  9.256212574030e-03 
  9.242302616123e-03 
  8.223721601954e-03 
  8.125000645299e-03 
  8.150019356163e-03 
  8.264157095187e-03 
  8.441954117860e-03 
  8.643118933626e-03 
  8.560276193577e-03 
  8.470239040586e-03 
  8.488241373202e-03 
  8.583721030046e-03 
  8.735541368836e-03 
  8.806480364933e-03 
  8.738357937093e-03 
  8.754906720602e-03 
  8.842960299516e-03 
  8.993875623870e-03 
  8.944291091950e-03 
  8.968729229237e-03 
  9.137127808233e-03 
  9.102839161451e-03 
  9.241511523382e-03 
  9.904691507915e-03 
  9.781574305705e-03 
  9.648733739418e-03 
  9.512025721527e-03 
  9.373907563359e-03 
  9.240579631570e-03 
  9.726360091603e-03 
  9.634350360069e-03 
  9.538282207750e-03 
  9.442336051067e-03 
  9.356630577776e-03 
  9.581753133696e-03 
  9.520719122332e-03 
  9.460929641343e-03 
  9.404971113460e-03 
  9.464425201396e-03 
  9.431395201793e-03 
  9.404826490689e-03 
  9.362374290565e-03 
  9.364963983636e-03 
  9.267843265562e-03 
  6.727417876261e-03 
  6.338966593309e-03 
  5.906640661130e-03 
  5.408950232195e-03 
  4.829833098864e-03 
  4.134206281082e-03 
  6.470755076772e-03 
  6.050819369137e-03 
  5.573337756000e-03 
  5.020394732968e-03 
  4.380186727995e-03 
  6.279755372656e-03 
  5.834962473665e-03 
  5.330047192583e-03 
  4.747051326138e-03 
  6.158683987660e-03 
  5.704437620348e-03 
  5.193292002031e-03 
  6.112649477246e-03 
  5.666757125947e-03 
  6.133651840654e-03 
  1.051046272805e-02 
  1.024164542551e-02 
  1.000357095377e-02 
  9.782828317726e-03 
  9.569499019275e-03 
  9.356181765489e-03 
  1.029211416481e-02 
  1.005913458054e-02 
  9.836063080668e-03 
  9.619334805621e-03 
  9.401581463381e-03 
  1.010016730323e-02 
  9.881563012410e-03 
  9.668632640544e-03 
  9.451917403235e-03 
  9.923922268725e-03 
  9.721885247610e-03 
  9.516123885847e-03 
  9.777323004272e-03 
  9.582195708831e-03 
  9.642905180612e-03 
  9.769015410906e-03 
  8.840248004099e-03 
  8.834544343759e-03 
  8.814908450423e-03 
  8.912453182199e-03 
  9.867677664521e-03 
  8.700805085387e-03 
  8.629898851014e-03 
  8.647141449217e-03 
  8.644134141754e-03 
  8.653389211752e-03 
  8.668288215372e-03 
  8.660339806440e-03 
  8.687228786234e-03 
  8.717065697594e-03 
  8.644671361000e-03 
  8.616497645105e-03 
  8.553819994463e-03 
  8.620362970637e-03 
  8.814739709803e-03 
  8.655765066467e-03 
  1.094811604659e-02 
  1.077310060452e-02 
  1.062447756046e-02 
  1.051195874939e-02 
  1.042817002048e-02 
  1.034751261850e-02 
  1.102336283833e-02 
  1.083840171666e-02 
  1.068389002989e-02 
  1.056500342785e-02 
  1.047548095714e-02 
  1.108265147544e-02 
  1.088654888537e-02 
  1.072721957411e-02 
  1.060344005938e-02 
  1.112057856282e-02 
  1.091934387270e-02 
  1.075280983651e-02 
  1.113850417481e-02 
  1.093296255293e-02 
  1.113602426153e-02 
  1.094712351666e-02 
  1.089501863504e-02 
  1.082250794339e-02 
  1.073094122849e-02 
  1.062482380555e-02 
  1.050940110255e-02 
  1.062097174819e-02 
  1.055914871402e-02 
  1.048228619107e-02 
  1.039352992760e-02 
  1.029224302927e-02 
  1.033619839299e-02 
  1.026740299884e-02 
  1.018734887782e-02 
  1.009987276580e-02 
  1.009195251117e-02 
  1.001161823589e-02 
  9.923942359333e-03 
  9.864983704115e-03 
  9.777075491874e-03 
  9.643191208773e-03 
  9.904573551519e-03 
  1.011459523107e-02 
  1.037690472607e-02 
  1.071812568556e-02 
  1.116653699796e-02 
  1.176169698901e-02 
  9.982661905999e-03 
  1.021323021673e-02 
  1.051679979862e-02 
  1.092708988912e-02 
  1.148024066270e-02 
  1.004482025258e-02 
  1.030544441173e-02 
  1.066544860665e-02 
  1.116868717821e-02 
  1.008990373814e-02 
  1.039017540753e-02 
  1.082852044312e-02 
  1.011052362319e-02 
  1.046555594061e-02 
  1.008806282841e-02 
  1.176169333605e-02 
  1.116658472519e-02 
  1.071812985633e-02 
  1.037696249546e-02 
  1.011459290275e-02 
  9.904771607481e-03 
  1.143698126239e-02 
  1.096101906924e-02 
  1.058632122342e-02 
  1.028775569627e-02 
  1.004324944060e-02 
  1.116085397589e-02 
  1.076836158555e-02 
  1.044621672933e-02 
  1.017718840792e-02 
  1.091794503962e-02 
  1.058511038520e-02 
  1.030184799320e-02 
  1.070065631564e-02 
  1.041348231913e-02 
  1.050883110842e-02 
  1.286000092346e-02 
  1.272603116120e-02 
  1.254832280473e-02 
  1.232653786284e-02 
  1.206159076077e-02 
  1.176296248737e-02 
  1.217469970146e-02 
  1.203551924643e-02 
  1.186224403088e-02 
  1.166001101057e-02 
  1.143683591279e-02 
  1.162331641518e-02 
  1.148876808453e-02 
  1.133300984434e-02 
  1.116103098856e-02 
  1.117814337563e-02 
  1.105439620247e-02 
  1.091776546986e-02 
  1.081464918591e-02 
  1.070059008056e-02 
  1.050796789243e-02 
  1.313856392596e-02 
  1.224564772589e-02 
  1.147909477854e-02 