# vtk DataFile Version 2
NuDG++ 2D simulation
ASCII
DATASET UNSTRUCTURED_GRID

POINTS 7854 double
 -1.656250060000e-01  -2.000000030000e-01  0.0
 -1.725000054000e-01  -1.908888817000e-01  0.0
 -1.793750048000e-01  -1.817777604000e-01  0.0
 -1.862500042000e-01  -1.726666391000e-01  0.0
 -1.931250036000e-01  -1.635555178000e-01  0.0
 -2.000000030000e-01  -1.544443965000e-01  0.0
 -1.725000054000e-01  -2.000000030000e-01  0.0
 -1.793750048000e-01  -1.908888817000e-01  0.0
 -1.862500042000e-01  -1.817777604000e-01  0.0
 -1.931250036000e-01  -1.726666391000e-01  0.0
 -2.000000030000e-01  -1.635555178000e-01  0.0
 -1.793750048000e-01  -2.000000030000e-01  0.0
 -1.862500042000e-01  -1.908888817000e-01  0.0
 -1.931250036000e-01  -1.817777604000e-01  0.0
 -2.000000030000e-01  -1.726666391000e-01  0.0
 -1.862500042000e-01  -2.000000030000e-01  0.0
 -1.931250036000e-01  -1.908888817000e-01  0.0
 -2.000000030000e-01  -1.817777604000e-01  0.0
 -1.931250036000e-01  -2.000000030000e-01  0.0
 -2.000000030000e-01  -1.908888817000e-01  0.0
 -2.000000030000e-01  -2.000000030000e-01  0.0
 -6.428571790000e-02  -1.700000018000e-01  0.0
 -7.080357372400e-02  -1.760000020400e-01  0.0
 -7.732142954800e-02  -1.820000022800e-01  0.0
 -8.383928537200e-02  -1.880000025200e-01  0.0
 -9.035714119600e-02  -1.940000027600e-01  0.0
 -9.687499702000e-02  -2.000000030000e-01  0.0
 -6.392857432000e-02  -1.760000020400e-01  0.0
 -7.044643014400e-02  -1.820000022800e-01  0.0
 -7.696428596800e-02  -1.880000025200e-01  0.0
 -8.348214179200e-02  -1.940000027600e-01  0.0
 -8.999999761600e-02  -2.000000030000e-01  0.0
 -6.357143074000e-02  -1.820000022800e-01  0.0
 -7.008928656400e-02  -1.880000025200e-01  0.0
 -7.660714238800e-02  -1.940000027600e-01  0.0
 -8.312499821200e-02  -2.000000030000e-01  0.0
 -6.321428716000e-02  -1.880000025200e-01  0.0
 -6.973214298400e-02  -1.940000027600e-01  0.0
 -7.624999880800e-02  -2.000000030000e-01  0.0
 -6.285714358000e-02  -1.940000027600e-01  0.0
 -6.937499940400e-02  -2.000000030000e-01  0.0
 -6.250000000000e-02  -2.000000030000e-01  0.0
 -2.000000030000e-01  -1.544443965000e-01  0.0
 -1.900000036000e-01  -1.478412374800e-01  0.0
 -1.800000042000e-01  -1.412380784600e-01  0.0
 -1.700000048000e-01  -1.346349194400e-01  0.0
 -1.600000054000e-01  -1.280317604200e-01  0.0
 -1.500000060000e-01  -1.214286014000e-01  0.0
 -2.000000030000e-01  -1.453332975600e-01  0.0
 -1.900000036000e-01  -1.387301385400e-01  0.0
 -1.800000042000e-01  -1.321269795200e-01  0.0
 -1.700000048000e-01  -1.255238205000e-01  0.0
 -1.600000054000e-01  -1.189206614800e-01  0.0
 -2.000000030000e-01  -1.362221986200e-01  0.0
 -1.900000036000e-01  -1.296190396000e-01  0.0
 -1.800000042000e-01  -1.230158805800e-01  0.0
 -1.700000048000e-01  -1.164127215600e-01  0.0
 -2.000000030000e-01  -1.271110996800e-01  0.0
 -1.900000036000e-01  -1.205079406600e-01  0.0
 -1.800000042000e-01  -1.139047816400e-01  0.0
 -2.000000030000e-01  -1.180000007400e-01  0.0
 -1.900000036000e-01  -1.113968417200e-01  0.0
 -2.000000030000e-01  -1.088889018000e-01  0.0
 -1.500000060000e-01  -1.214286014000e-01  0.0
 -1.600000054000e-01  -1.280317604200e-01  0.0
 -1.700000048000e-01  -1.346349194400e-01  0.0
 -1.800000042000e-01  -1.412380784600e-01  0.0
 -1.900000036000e-01  -1.478412374800e-01  0.0
 -2.000000030000e-01  -1.544443965000e-01  0.0
 -1.500000060000e-01  -1.311428814800e-01  0.0
 -1.600000054000e-01  -1.377460405000e-01  0.0
 -1.700000048000e-01  -1.443491995200e-01  0.0
 -1.800000042000e-01  -1.509523585400e-01  0.0
 -1.900000036000e-01  -1.575555175600e-01  0.0
 -1.500000060000e-01  -1.408571615600e-01  0.0
 -1.600000054000e-01  -1.474603205800e-01  0.0
 -1.700000048000e-01  -1.540634796000e-01  0.0
 -1.800000042000e-01  -1.606666386200e-01  0.0
 -1.500000060000e-01  -1.505714416400e-01  0.0
 -1.600000054000e-01  -1.571746006600e-01  0.0
 -1.700000048000e-01  -1.637777596800e-01  0.0
 -1.500000060000e-01  -1.602857217200e-01  0.0
 -1.600000054000e-01  -1.668888807400e-01  0.0
 -1.500000060000e-01  -1.700000018000e-01  0.0
 -1.500000060000e-01  -7.285714149000e-02  0.0
 -1.600000054000e-01  -8.006349355200e-02  0.0
 -1.700000048000e-01  -8.726984561400e-02  0.0
 -1.800000042000e-01  -9.447619767600e-02  0.0
 -1.900000036000e-01  -1.016825497380e-01  0.0
 -2.000000030000e-01  -1.088889018000e-01  0.0
 -1.500000060000e-01  -8.257143347200e-02  0.0
 -1.600000054000e-01  -8.977778553400e-02  0.0
 -1.700000048000e-01  -9.698413759600e-02  0.0
 -1.800000042000e-01  -1.041904896580e-01  0.0
 -1.900000036000e-01  -1.113968417200e-01  0.0
 -1.500000060000e-01  -9.228572545400e-02  0.0
 -1.600000054000e-01  -9.949207751600e-02  0.0
 -1.700000048000e-01  -1.066984295780e-01  0.0
 -1.800000042000e-01  -1.139047816400e-01  0.0
 -1.500000060000e-01  -1.020000174360e-01  0.0
 -1.600000054000e-01  -1.092063694980e-01  0.0
 -1.700000048000e-01  -1.164127215600e-01  0.0
 -1.500000060000e-01  -1.117143094180e-01  0.0
 -1.600000054000e-01  -1.189206614800e-01  0.0
 -1.500000060000e-01  -1.214286014000e-01  0.0
  1.832975030000e+00  -4.625000060000e-02  0.0
  1.841380024000e+00  -7.700000108000e-02  0.0
  1.849785018000e+00  -1.077500015600e-01  0.0
  1.858190012000e+00  -1.385000020400e-01  0.0
  1.866595006000e+00  -1.692500025200e-01  0.0
  1.875000000000e+00  -2.000000030000e-01  0.0
  1.866380024000e+00  -5.649999976400e-02  0.0
  1.874785018000e+00  -8.725000024400e-02  0.0
  1.883190012000e+00  -1.180000007240e-01  0.0
  1.891595006000e+00  -1.487500012040e-01  0.0
  1.900000000000e+00  -1.795000016840e-01  0.0
  1.899785018000e+00  -6.674999892800e-02  0.0
  1.908190012000e+00  -9.749999940800e-02  0.0
  1.916595006000e+00  -1.282499998880e-01  0.0
  1.925000000000e+00  -1.590000003680e-01  0.0
  1.933190012000e+00  -7.699999809200e-02  0.0
  1.941595006000e+00  -1.077499985720e-01  0.0
  1.950000000000e+00  -1.384999990520e-01  0.0
  1.966595006000e+00  -8.724999725600e-02  0.0
  1.975000000000e+00  -1.179999977360e-01  0.0
  2.000000000000e+00  -9.749999642000e-02  0.0
 -1.500000060000e-01  -1.700000018000e-01  0.0
 -1.444000050800e-01  -1.630000025200e-01  0.0
 -1.388000041600e-01  -1.560000032400e-01  0.0
 -1.332000032400e-01  -1.490000039600e-01  0.0
 -1.276000023200e-01  -1.420000046800e-01  0.0
 -1.220000014000e-01  -1.350000054000e-01  0.0
 -1.500000060000e-01  -1.602857217200e-01  0.0
 -1.444000050800e-01  -1.532857224400e-01  0.0
 -1.388000041600e-01  -1.462857231600e-01  0.0
 -1.332000032400e-01  -1.392857238800e-01  0.0
 -1.276000023200e-01  -1.322857246000e-01  0.0
 -1.500000060000e-01  -1.505714416400e-01  0.0
 -1.444000050800e-01  -1.435714423600e-01  0.0
 -1.388000041600e-01  -1.365714430800e-01  0.0
 -1.332000032400e-01  -1.295714438000e-01  0.0
 -1.500000060000e-01  -1.408571615600e-01  0.0
 -1.444000050800e-01  -1.338571622800e-01  0.0
 -1.388000041600e-01  -1.268571630000e-01  0.0
 -1.500000060000e-01  -1.311428814800e-01  0.0
 -1.444000050800e-01  -1.241428822000e-01  0.0
 -1.500000060000e-01  -1.214286014000e-01  0.0
  2.849999964000e-01  -2.333333530000e-02  0.0
  2.844999968800e-01  -4.666666836000e-02  0.0
  2.839999973600e-01  -7.000000142000e-02  0.0
  2.834999978400e-01  -9.333333448000e-02  0.0
  2.829999983200e-01  -1.166666675400e-01  0.0
  2.824999988000e-01  -1.400000006000e-01  0.0
  2.979999959200e-01  -3.266666830000e-02  0.0
  2.974999964000e-01  -5.600000136000e-02  0.0
  2.969999968800e-01  -7.933333442000e-02  0.0
  2.964999973600e-01  -1.026666674800e-01  0.0
  2.959999978400e-01  -1.260000005400e-01  0.0
  3.109999954400e-01  -4.200000130000e-02  0.0
  3.104999959200e-01  -6.533333436000e-02  0.0
  3.099999964000e-01  -8.866666742000e-02  0.0
  3.094999968800e-01  -1.120000004800e-01  0.0
  3.239999949600e-01  -5.133333430000e-02  0.0
  3.234999954400e-01  -7.466666736000e-02  0.0
  3.229999959200e-01  -9.800000042000e-02  0.0
  3.369999944800e-01  -6.066666730000e-02  0.0
  3.364999949600e-01  -8.400000036000e-02  0.0
  3.499999940000e-01  -7.000000030000e-02  0.0
 -1.071429029000e-01  -1.700000018000e-01  0.0
 -9.857146590000e-02  -1.700000018000e-01  0.0
 -9.000002890000e-02  -1.700000018000e-01  0.0
 -8.142859190000e-02  -1.700000018000e-01  0.0
 -7.285715490000e-02  -1.700000018000e-01  0.0
 -6.428571790000e-02  -1.700000018000e-01  0.0
 -1.037143230360e-01  -1.630000025200e-01  0.0
 -9.514288603600e-02  -1.630000025200e-01  0.0
 -8.657144903600e-02  -1.630000025200e-01  0.0
 -7.800001203600e-02  -1.630000025200e-01  0.0
 -6.942857503600e-02  -1.630000025200e-01  0.0
 -1.002857431720e-01  -1.560000032400e-01  0.0
 -9.171430617200e-02  -1.560000032400e-01  0.0
 -8.314286917200e-02  -1.560000032400e-01  0.0
 -7.457143217200e-02  -1.560000032400e-01  0.0
 -9.685716330800e-02  -1.490000039600e-01  0.0
 -8.828572630800e-02  -1.490000039600e-01  0.0
 -7.971428930800e-02  -1.490000039600e-01  0.0
 -9.342858344400e-02  -1.420000046800e-01  0.0
 -8.485714644400e-02  -1.420000046800e-01  0.0
 -9.000000358000e-02  -1.350000054000e-01  0.0
 -1.312499940000e-01  -2.000000030000e-01  0.0
 -1.264285757800e-01  -1.940000027600e-01  0.0
 -1.216071575600e-01  -1.880000025200e-01  0.0
 -1.167857393400e-01  -1.820000022800e-01  0.0
 -1.119643211200e-01  -1.760000020400e-01  0.0
 -1.071429029000e-01  -1.700000018000e-01  0.0
 -1.349999964000e-01  -1.940000027600e-01  0.0
 -1.301785781800e-01  -1.880000025200e-01  0.0
 -1.253571599600e-01  -1.820000022800e-01  0.0
 -1.205357417400e-01  -1.760000020400e-01  0.0
 -1.157143235200e-01  -1.700000018000e-01  0.0
 -1.387499988000e-01  -1.880000025200e-01  0.0
 -1.339285805800e-01  -1.820000022800e-01  0.0
 -1.291071623600e-01  -1.760000020400e-01  0.0
 -1.242857441400e-01  -1.700000018000e-01  0.0
 -1.425000012000e-01  -1.820000022800e-01  0.0
 -1.376785829800e-01  -1.760000020400e-01  0.0
 -1.328571647600e-01  -1.700000018000e-01  0.0
 -1.462500036000e-01  -1.760000020400e-01  0.0
 -1.414285853800e-01  -1.700000018000e-01  0.0
 -1.500000060000e-01  -1.700000018000e-01  0.0
[...]
POINT_DATA 7854
SCALARS field1 double 1
LOOKUP_TABLE default
  4.002380532139e-07 
  1.094966292370e-02 
  1.236587239100e-02 
  1.247836721629e-02 
  1.370553236114e-02 
  1.606216932380e-02 
 -4.045115360119e-06 
  9.089476195677e-03 
  1.013319537047e-02 
  1.086406946260e-02 
  1.316322062563e-02 
  1.312572423452e-06 
  6.872184660739e-03 
  8.021745411056e-03 
  1.011936013779e-02 
  1.177048852415e-05 
  4.662186806037e-03 
  6.910594969912e-03 
 -2.450524870031e-06 
  3.528022480226e-03 
  3.595082717787e-06 
  3.072124019250e-02 
  2.988889189786e-02 
  2.838100412592e-02 
  2.491206931704e-02 
  1.683421445635e-02 
 -1.031468203255e-06 
  3.041097920004e-02 
  2.891385066798e-02 
  2.542581118305e-02 
  1.720955549664e-02 
 -3.395037327476e-07 
  2.941245562053e-02 
  2.590415603983e-02 
  1.756441386574e-02 
 -3.912938784953e-07 
  2.635100454856e-02 
  1.789620534777e-02 
 -3.820858490820e-07 
  1.820363857566e-02 
 -2.555118666796e-07 
 -5.108513310415e-07 
  1.605874070133e-02 
  1.856920291767e-02 
  2.115450819775e-02 
  2.329754944027e-02 
  2.500344925526e-02 
  2.639351345132e-02 
  1.878619716753e-02 
  2.097665246109e-02 
  2.312522777421e-02 
  2.489150705798e-02 
  2.630838516255e-02 
  2.135685890908e-02 
  2.326236088241e-02 
  2.500195389895e-02 
  2.642148982495e-02 
  2.376462248630e-02 
  2.540487543670e-02 
  2.677986468014e-02 
  2.601280590064e-02 
  2.740948175402e-02 
  2.810018361793e-02 
  2.639398635600e-02 
  2.500341154946e-02 
  2.329760760140e-02 
  2.115418875774e-02 
  1.856988310486e-02 
  1.605995453127e-02 
  2.525908214187e-02 
  2.360915580971e-02 
  2.156696923504e-02 
  1.898107943886e-02 
  1.590612338432e-02 
  2.413297924335e-02 
  2.222659337133e-02 
  1.983149499103e-02 
  1.679998698311e-02 
  2.305028395299e-02 
  2.089149250862e-02 
  1.815727294243e-02 
  2.205509715185e-02 
  1.966476798319e-02 
  2.116470749050e-02 
  3.078125338072e-02 
  3.080554872846e-02 
  3.062963632028e-02 
  3.017733479346e-02 
  2.937365499855e-02 
  2.810160086652e-02 
  3.008970327633e-02 
  2.985028447525e-02 
  2.935511690663e-02 
  2.855232368199e-02 
  2.740885353380e-02 
  2.931791795507e-02 
  2.878959506439e-02 
  2.795085738513e-02 
  2.677969409752e-02 
  2.845496938441e-02 
  2.761237921905e-02 
  2.642102518173e-02 
  2.747992072403e-02 
  2.630824589120e-02 
  2.639336392310e-02 
  3.132454495500e-02 
  2.654601833142e-02 
  2.722152636598e-02 
  2.657814873387e-02 
  2.940834409268e-02 
  6.873528112118e-04 
  2.777086972351e-02 
  2.801710318836e-02 
  2.724023194257e-02 
  2.699894629621e-02 
  2.651537571845e-02 
  2.775119751855e-02 
  2.792479554552e-02 
  2.702056804733e-02 
  2.738086488805e-02 
  2.758975219375e-02 
  2.752756288678e-02 
  2.679652634733e-02 
  2.806386881965e-02 
  2.650237217533e-02 
  2.885262523925e-02 
  2.116430684905e-02 
  2.263368715160e-02 
  2.394019328184e-02 
  2.510311022512e-02 
  2.614705633503e-02 
  2.708095005279e-02 
  2.205460633442e-02 
  2.347262949987e-02 
  2.472816647330e-02 
  2.584071003843e-02 
  2.681851389180e-02 
  2.305069492357e-02 
  2.440185865922e-02 
  2.558182470710e-02 
  2.661102298328e-02 
  2.413349035931e-02 
  2.538349894724e-02 
  2.646195915039e-02 
  2.525908985864e-02 
  2.638434409395e-02 
  2.639422091958e-02 
  2.816924143209e-02 
  2.754660220882e-02 
  2.783106161611e-02 
  2.795409626048e-02 
  2.789781036532e-02 
  2.933081872933e-02 
  2.775101709568e-02 
  2.768393316919e-02 
  2.787861504483e-02 
  2.789031206051e-02 
  2.803334037660e-02 
  2.773995418165e-02 
  2.782583494037e-02 
  2.788440580371e-02 
  2.787570903317e-02 
  2.788674303153e-02 
  2.788590948778e-02 
  2.784684279805e-02 
  2.786025042285e-02 
  2.798203696854e-02 
  2.748846447229e-02 
  2.689296266404e-02 
  2.777338097665e-02 
  2.858928174541e-02 
  2.935325812893e-02 
  3.006496564458e-02 
  3.072450173412e-02 
  2.749399799657e-02 
  2.832217901232e-02 
  2.910282241006e-02 
  2.983883162620e-02 
  3.052976655453e-02 
  2.805110655241e-02 
  2.883573655300e-02 
  2.958496311614e-02 
  3.030209546544e-02 
  2.860027289924e-02 
  2.934825501620e-02 
  3.007705279658e-02 
  2.913589846083e-02 
  2.985953686882e-02 
  2.966036707015e-02 
 -2.215826569800e-06 
  1.435194899014e-02 
  2.139256079824e-02 
  2.454295808794e-02 
  2.601390186082e-02 
  2.689328483652e-02 
  1.358648894044e-02 
  2.036264819414e-02 
  2.348284968389e-02 
  2.499819483813e-02 
  2.595510558712e-02 
  1.920237762881e-02 
  2.230113629229e-02 
  2.388426024314e-02 
  2.492742174524e-02 
  2.096885085418e-02 
  2.264585909870e-02 
  2.380078183532e-02 
  2.125524151480e-02 
  2.255512861914e-02 
  2.116239380846e-02 
  2.708068215885e-02 
  2.759011105632e-02 
  2.810049096198e-02 
  2.861480322166e-02 
  2.913303671876e-02 
  2.965987562123e-02 
  2.759797219330e-02 
  2.804948546868e-02 
  2.851314305452e-02 
  2.899102563907e-02 
  2.948369571256e-02 
  2.807260121128e-02 
  2.846982195549e-02 
  2.888969519413e-02 
  2.933507898520e-02 
  2.849627136521e-02 
  2.884090391034e-02 
  2.921996847882e-02 
  2.885698602684e-02 
  2.915108380247e-02 
  2.913674365672e-02 
  2.965971084626e-02 
  2.913314194465e-02 
  2.861481062573e-02 
  2.810046932228e-02 
  2.759017092564e-02 
  2.708078773795e-02 
  2.913606544829e-02 
  2.859253483078e-02 
  2.804334352734e-02 
  2.748776914821e-02 
  2.692101279228e-02 
  2.859997866741e-02 
  2.802611776475e-02 
  2.743725304558e-02 
  2.683135313685e-02 
  2.805112862614e-02 
  2.744117489474e-02 
  2.680647051002e-02 
  2.749395840772e-02 
  2.684061450789e-02 
  2.689358061660e-02 
  3.137048854496e-02 
  3.074548540085e-02 
  3.023745487112e-02 
  2.981548461294e-02 
  2.945691651593e-02 
  2.913686025155e-02 
  3.120737243053e-02 
  3.059000117283e-02 
  3.005495370548e-02 
  2.958079801484e-02 
  2.915100524353e-02 
  3.092382287217e-02 
  3.030675121825e-02 
  2.974399269128e-02 
  2.922001131723e-02 
  3.055398379026e-02 
  2.992973993428e-02 
  2.933512068504e-02 
  3.012508915440e-02 
  2.948363996344e-02 
  2.966040976789e-02 
  2.708087156224e-02 
  2.759806325800e-02 
  2.807258448292e-02 
  2.849635352782e-02 
  2.885713844354e-02 
  2.913639289318e-02 
  2.681867975258e-02 
  2.739010229489e-02 
  2.790775908974e-02 
  2.836634194217e-02 
  2.875496274288e-02 
  2.661089431349e-02 
  2.723762500480e-02 
  2.780648630016e-02 
  2.830689133610e-02 
  2.646176202692e-02 
  2.715311572562e-02 
  2.777958154507e-02 
  2.638431213675e-02 
  2.714863981531e-02 
  2.639415188473e-02 
  3.137012833533e-02 
  3.120737554028e-02 
  3.092377050177e-02 
  3.055400556737e-02 
  3.012492582366e-02 
  2.966126709605e-02 
  3.187712510453e-02 
  3.160436419259e-02 
  3.124419989776e-02 
  3.082818695908e-02 
  3.037526519236e-02 
  3.236630218378e-02 
  3.198671106252e-02 
  3.155644356290e-02 
  3.109977278449e-02 
  3.281713817848e-02 
  3.234179257335e-02 
  3.185159905243e-02 
  3.321863278357e-02 
  3.266075506834e-02 
  3.355678786580e-02 
  2.689362334613e-02 
  2.684083678477e-02 
  2.680669697796e-02 
  2.683145718090e-02 
  2.692073420969e-02 
  2.708107518851e-02 
  2.595535099369e-02 
  2.591303365014e-02 
  2.591098334253e-02 
  2.598802100946e-02 
  2.614720047020e-02 
  2.492751809596e-02 
  2.491291141298e-02 
  2.495860876715e-02 
  2.510331863735e-02 
  2.380107753324e-02 
  2.382575176781e-02 
  2.393976362256e-02 
  2.255510597499e-02 
  2.263368585362e-02 
  2.116350329788e-02 
 -3.278615332935e-07 
 -3.957953089065e-07 
 -3.199697162970e-07 
 -4.526537493277e-07 
 -3.761291370098e-07 
 -1.260760328822e-06 
  1.986602494011e-02 
  1.982343184350e-02 
  1.968994773049e-02 
  1.948132426424e-02 
  1.922301821445e-02 
  2.877795004714e-02 
  2.869762193124e-02 
  2.848009959092e-02 
  2.815763558028e-02 
  3.215356835373e-02 
  3.202337372342e-02 
  3.175076960868e-02 
  3.326273670865e-02 
  3.307627300712e-02 
  3.361121537229e-02 
  3.077933241440e-02 
  3.008909153124e-02 
  2.931770757342e-02 
  2.845507923530e-02 
  2.747969828722e-02 
  2.639395321863e-02 
  3.008150202135e-02 
  2.949166298734e-02 
  2.881423796913e-02 
  2.803420820168e-02 
  2.714865827334e-02 
  2.958967434873e-02 
  2.908574586587e-02 
  2.848019271709e-02 
  2.777961626130e-02 
  2.927806636776e-02 
  2.884241743231e-02 
  2.830690614865e-02 
  2.913402804862e-02 
  2.875501419058e-02 
  2.913597591084e-02 
  3.613196799699e-02 
  3.524747765028e-02 
  3.390622954877e-02 
  3.266108928690e-02 
  3.161794122403e-02 
  3.078084779347e-02 
  3.639727840584e-02 
  3.493926688846e-02 
  3.354069422795e-02 
  3.235639678070e-02 
  3.134806828483e-02 
  3.581479973224e-02 
  3.427826801165e-02 
  3.293431450264e-02 
  3.177295494859e-02 
  3.488809978567e-02 
  3.339859299096e-02 
  3.207870973072e-02 
  3.376998538376e-02 
  3.231817678796e-02 
  3.254063187682e-02 
  3.612947807957e-02 
  3.484497078045e-02 
  3.339954357661e-02 
  3.179434958412e-02 
  3.002799695043e-02 
  2.810054848373e-02 
  3.524808022793e-02 
  3.400804979221e-02 
  3.261039117618e-02 
  3.106862854325e-02 
  2.937354097555e-02 
  3.390564306914e-02 
  3.279014188371e-02 
  3.154598784774e-02 
  3.017690842447e-02 
  3.266178492657e-02 
  3.170465510733e-02 
  3.063027609407e-02 
  3.161708412619e-02 
  3.080497375295e-02 
  3.078389477543e-02 
  3.613000938690e-02 
  3.639742271771e-02 
  3.581403639779e-02 
  3.488846448037e-02 
  3.376929644378e-02 
  3.254365607677e-02 
  3.725384549822e-02 
  3.732035934063e-02 
  3.648270517937e-02 
  3.534577554637e-02 
  3.405851483920e-02 
  3.821689356668e-02 
  3.808893858983e-02 
  3.703181433732e-02 
  3.570517851071e-02 
  3.901963074898e-02 
  3.871646004546e-02 
  3.746275450389e-02 
  3.966289456896e-02 
  3.918566186625e-02 
  4.014338539616e-02 
  3.253764232940e-02 
  3.231731716110e-02 
  3.207787699028e-02 
  3.177276731795e-02 
  3.134762626168e-02 
  3.077832919911e-02 
  3.124260825889e-02 
  3.115936304053e-02 
  3.105245652606e-02 
  3.088381353712e-02 
  3.060163894296e-02 
  3.002912984438e-02 
  3.009827128023e-02 
  3.014594488725e-02 
  3.013222848161e-02 
  2.887040145967e-02 
  2.912641982525e-02 
  2.936332149946e-02 
  2.776745193085e-02 
  2.826033354206e-02 
  2.672277347082e-02 
  2.585289566032e-02 
  2.741858196452e-02 
  2.885155657008e-02 
  3.017490507599e-02 
  3.139428301341e-02 
  3.253645143809e-02 
  2.575432129969e-02 
  2.737304007269e-02 
  2.880831400399e-02 
  3.009115695307e-02 
  3.124269009565e-02 
  2.580298339898e-02 
  2.742424643577e-02 
  2.881735258736e-02 
  3.002884468433e-02 
  2.599407410728e-02 
  2.756063402126e-02 
  2.887072792686e-02 
  2.630994580352e-02 
  2.776731406455e-02 
  2.672404427113e-02 
  3.253973103996e-02 
  3.266807210226e-02 
  3.275501848567e-02 
  3.279669067330e-02 
  3.281678235011e-02 
  3.283491685886e-02 
  3.405933945018e-02 
  3.427706946422e-02 
  3.439626972313e-02 
  3.444795993083e-02 
  3.442724865803e-02 
  3.570412964926e-02 
  3.596278059744e-02 
  3.611512688844e-02 
  3.616439037792e-02 
  3.746403721217e-02 
  3.777395297766e-02 
  3.794024642290e-02 
  3.918499874738e-02 
  3.952438483312e-02 
  4.014646614867e-02 
  3.077689952492e-02 
  3.023436390943e-02 
  2.975656299988e-02 
  2.935832980596e-02 
  2.905809422233e-02 
  2.891732803322e-02 
  3.060190907091e-02 
  2.993442784040e-02 
  2.933403266242e-02 
  2.880800039164e-02 
  2.838923048482e-02 
  3.013193956446e-02 
  2.933223687750e-02 
  2.857723590386e-02 
  2.787773953184e-02 
  2.936347159926e-02 
  2.838759549311e-02 
  2.740930740476e-02 
  2.826017990571e-02 
  2.701796438796e-02 
  2.672417945766e-02 
  2.922834590495e-02 
  2.811449686891e-02 
  2.781947735237e-02 
  2.783447771489e-02 
  2.821243494634e-02 
  2.923253120675e-02 
  2.776585701946e-02 
  2.796810905197e-02 
  2.797529611834e-02 
  2.813664445049e-02 
  2.832385924854e-02 
  2.777123800805e-02 
  2.757563445176e-02 
  2.750268152365e-02 
  2.705346378717e-02 
  2.773799675539e-02 
  2.786132302208e-02 
  2.757210614181e-02 
  2.457960079074e-02 
  2.748944152701e-02 
  3.382810818303e-04 
  2.537829723949e-02 
  2.654070248755e-02 
  2.739959465717e-02 
  2.805257771731e-02 
  2.854541852878e-02 
  2.892028486311e-02 
  2.660866635954e-02 
  2.748918751915e-02 
  2.813791686088e-02 
  2.862532304917e-02 
  2.898066871311e-02 
  2.792321915901e-02 
  2.850461345973e-02 
  2.892588636349e-02 
  2.923467650202e-02 
  2.927929334172e-02 
  2.955392032606e-02 
  2.973921885292e-02 
  3.063056374525e-02 
  3.060270161386e-02 
  3.193245924671e-02 
  2.891697222687e-02 
  2.905814438889e-02 
  2.935824066911e-02 
  2.975667676743e-02 
  3.023428428533e-02 
  3.077737626766e-02 
  2.931912447939e-02 
  2.933774945853e-02 
  2.949859632006e-02 
  2.975489155847e-02 
  3.008160595601e-02 
  2.951889781933e-02 
  2.943126052738e-02 
  2.946855313891e-02 
  2.958914860048e-02 
  2.954070503504e-02 
  2.935884438354e-02 
  2.927819681733e-02 
  2.941020233005e-02 
  2.913382991513e-02 
  2.913660403076e-02 
  1.117469230056e-02 
  1.353882021334e-02 
  1.555436288491e-02 
  1.728181233554e-02 
  1.877936551283e-02 
  2.010359005174e-02 
  1.216785240691e-02 
  1.441919396477e-02 
  1.632616993341e-02 
  1.795324723582e-02 
  1.935155457536e-02 
  1.342094355701e-02 
  1.556313245742e-02 
  1.732011239014e-02 
  1.880563054753e-02 
  1.496620393695e-02 
  1.694430883009e-02 
  1.851350404672e-02 
  1.679494118712e-02 
  1.853701033978e-02 
  1.884726551168e-02 
  2.010195605655e-02 
  2.190403059484e-02 
  2.341073732034e-02 
  2.468048545309e-02 
  2.577300566256e-02 
  2.672668867183e-02 
  2.080456929640e-02 
  2.246790750986e-02 
  2.384629610608e-02 
  2.501250119035e-02 
  2.601408476053e-02 
  2.173447485428e-02 
  2.318994653264e-02 
  2.440377205847e-02 
  2.543847621543e-02 
  2.284396896801e-02 
  2.404779960587e-02 
  2.506453906630e-02 
  2.407574801213e-02 
  2.500605227740e-02 
  2.537947581867e-02 
  2.537690088884e-02 
  2.462309333468e-02 
  2.367701960740e-02 
  2.250235186894e-02 
  2.096143585840e-02 
  1.884771669785e-02 
  2.407502335369e-02 
  2.308501157650e-02 
  2.189059363182e-02 
  2.041452397061e-02 
  1.853704307127e-02 
  2.284385194231e-02 
  2.165581418884e-02 
  2.023514421405e-02 
  1.851337739499e-02 
  2.173413811634e-02 
  2.039378022754e-02 
  1.880545524324e-02 
  2.080395715917e-02 
  1.935167854981e-02 
  2.010340750149e-02 
  2.010176525694e-02 
  2.086576462607e-02 
  2.197469163937e-02 
  2.324126111886e-02 
  2.455923437251e-02 
  2.585425416447e-02 
  2.190423167172e-02 
  2.256490974325e-02 
  2.350398833392e-02 
  2.459772962110e-02 
  2.575424304364e-02 
  2.341092092212e-02 
  2.399907537610e-02 
  2.483024117674e-02 
  2.580285263227e-02 
  2.468026315818e-02 
  2.523381036220e-02 
  2.599417016688e-02 
  2.577321469762e-02 
  2.631022904428e-02 
  2.672525348805e-02 
  3.137011265237e-02 
  3.162176860474e-02 
  3.182328212208e-02 
  3.196448410907e-02 
  3.202087284750e-02 
  3.193308678615e-02 
  3.091348563760e-02 
  3.101457488979e-02 
  3.101955671953e-02 
  3.089686113154e-02 
  3.060260058598e-02 
  3.041698471469e-02 
  3.035153565570e-02 
  3.014181956238e-02 
  2.973938982216e-02 
  2.990265715377e-02 
  2.966340304220e-02 
  2.923453496266e-02 
  2.939288958841e-02 
  2.898074940588e-02 
  2.891979288929e-02 
  2.538056820690e-02 
  2.500579731246e-02 
  2.506480408423e-02 
  2.543833641913e-02 
  2.601423560882e-02 
  2.672604623348e-02 
  2.654043920020e-02 
  2.620167692655e-02 
  2.623325642336e-02 
  2.652968666645e-02 
  2.701854470489e-02 
  2.739991455120e-02 
  2.712601490230e-02 
  2.715209785678e-02 
  2.740990866347e-02 
  2.805246886272e-02 
  2.783948531477e-02 
  2.787831472371e-02 
  2.854562336257e-02 
  2.838957812986e-02 
  2.891879202741e-02 
  3.137080803869e-02 
  3.091323699732e-02 
  3.041679646403e-02 
  2.990227268300e-02 
  2.939258520033e-02 
  2.891798193106e-02 
  3.074545188733e-02 
  3.039122250169e-02 
  3.002364460780e-02 
  2.965951194048e-02 
  2.931899408222e-02 
  3.023756585377e-02 
  2.998632805472e-02 
  2.974277420799e-02 
  2.951910723077e-02 
  2.981540269982e-02 
  2.966711108511e-02 
  2.954074587060e-02 
  2.945704411572e-02 
  2.941052563590e-02 
  2.913645526377e-02 
  2.010252703492e-02 
  1.877970380597e-02 
  1.728170183390e-02 
  1.555406830435e-02 
  1.353889725767e-02 
  1.117527704409e-02 
  1.921253486566e-02 
  1.777330538183e-02 
  1.612576094087e-02 
  1.422986599134e-02 
  1.204905831349e-02 
  1.854269849706e-02 
  1.701951594822e-02 
  1.528471523556e-02 
  1.330155828472e-02 
  1.811632135851e-02 
  1.656403973985e-02 
  1.481198243593e-02 
  1.795113961349e-02 
  1.642730896117e-02 
  1.803940724324e-02 
  3.355731216105e-02 
  3.266066221364e-02 
  3.185176635223e-02 
  3.109963383794e-02 
  3.037534259785e-02 
  2.966090163762e-02 
  3.287328361530e-02 
  3.207218535328e-02 
  3.131679536670e-02 
  3.058489703462e-02 
  2.985982780064e-02 
  3.223895829961e-02 
  3.150413222920e-02 
  3.078785878056e-02 
  3.007709952984e-02 
  3.167033845781e-02 
  3.098814412952e-02 
  3.030234553917e-02 
  3.118336993606e-02 
  3.052996791104e-02 
  3.072622116930e-02 
  3.120949840244e-02 
  2.770695835354e-02 
  2.770655138886e-02 
  2.757703827295e-02 
  2.799074910833e-02 
  2.899375405970e-02 
  2.796712797873e-02 
  2.748942709957e-02 
  2.758695875477e-02 
  2.757507984449e-02 
  2.821046915799e-02 
  2.748142617668e-02 
  2.767060518941e-02 
  2.760927565843e-02 
  2.796146543742e-02 
  2.748948134268e-02 
  2.744356507251e-02 
  2.819995880249e-02 
  2.788723129867e-02 
  2.859677993578e-02 
  2.852007617910e-02 
  3.513719935192e-02 
  3.456994274815e-02 
  3.409324050042e-02 
  3.370596154139e-02 
  3.340486572437e-02 
  3.312995878634e-02 
  3.541258541951e-02 
  3.479899729449e-02 
  3.429000668270e-02 
  3.388516547760e-02 
  3.356996132284e-02 
  3.562170569898e-02 
  3.496921910452e-02 
  3.443861606538e-02 
  3.402006898759e-02 
  3.575659122447e-02 
  3.507886107572e-02 
  3.453661823887e-02 
  3.581791509068e-02 
  3.512865524168e-02 
  3.580401733796e-02 
  3.513672753048e-02 
  3.494982234917e-02 
  3.469528771055e-02 
  3.437410270770e-02 
  3.399075162577e-02 
  3.355635829444e-02 
  3.404103148072e-02 
  3.381734665160e-02 
  3.354545476426e-02 
  3.322942175937e-02 
  3.287334046073e-02 
  3.309778488405e-02 
  3.284254286873e-02 
  3.255519102804e-02 
  3.223876326403e-02 
  3.226327553947e-02 
  3.197978671835e-02 
  3.167040894414e-02 
  3.149597828732e-02 
  3.118313174861e-02 
  3.072702631192e-02 
  3.136957707795e-02 
  3.209530148868e-02 
  3.300861887857e-02 
  3.419412117527e-02 
  3.575073426543e-02 
  3.780316502196e-02 
  3.162163412425e-02 
  3.242266190895e-02 
  3.347968194282e-02 
  3.490439101954e-02 
  3.682233040228e-02 
  3.182300113270e-02 
  3.272977943376e-02 
  3.398174675934e-02 
  3.572286973740e-02 
  3.196433886507e-02 
  3.301094639380e-02 
  3.452100420092e-02 
  3.202092513953e-02 
  3.324575837642e-02 
  3.193211310715e-02 
  3.780323283680e-02 
  3.575081306621e-02 
  3.419418165349e-02 
  3.300868714924e-02 
  3.209536383440e-02 
  3.136956149270e-02 
  3.671167885414e-02 
  3.505966486193e-02 
  3.375693195058e-02 
  3.272079394930e-02 
  3.187679835968e-02 
  3.577086121340e-02 
  3.440961939720e-02 
  3.329382817333e-02 
  3.236588752650e-02 
  3.494720267372e-02 
  3.379720611304e-02 
  3.281662445547e-02 
  3.421629638342e-02 
  3.321801048253e-02 
  3.355566626792e-02 
  4.167529136362e-02 
  4.120820989646e-02 
  4.057787097813e-02 
  3.978939579993e-02 
  3.885463118913e-02 
  3.780516593339e-02 
  3.931418593000e-02 
  3.882038500152e-02 
  3.820978616430e-02 
  3.749924857708e-02 
  3.671150488413e-02 
  3.740971157579e-02 
  3.693079519143e-02 
  3.638006563258e-02 
  3.577117005151e-02 
  3.587309102470e-02 
  3.543222853536e-02 
  3.494697351133e-02 
  3.461735271309e-02 
  3.421630159541e-02 
  3.355452702696e-02 
  3.907244576428e-02 
  3.796187390071e-02 
  3.625151209402e-02 