# vtk DataFile Version 2
NuDG++ 2D simulation
ASCII
DATASET UNSTRUCTURED_GRID

POINTS 7854 double
 -1.656250060000e-01  -2.000000030000e-01  0.0
 -1.725000054000e-01  -1.908888817000e-01  0.0
 -1.793750048000e-01  -1.817777604000e-01  0.0
 -1.862500042000e-01  -1.726666391000e-01  0.0
 -1.931250036000e-01  -1.635555178000e-01  0.0
 -2.000000030000e-01  -1.544443965000e-01  0.0
 -1.725000054000e-01  -2.000000030000e-01  0.0
 -1.793750048000e-01  -1.908888817000e-01  0.0
 -1.862500042000e-01  -1.817777604000e-01  0.0
 -1.931250036000e-01  -1.726666391000e-01  0.0
 -2.000000030000e-01  -1.635555178000e-01  0.0
 -1.793750048000e-01  -2.000000030000e-01  0.0
 -1.862500042000e-01  -1.908888817000e-01  0.0
 -1.931250036000e-01  -1.817777604000e-01  0.0
 -2.000000030000e-01  -1.726666391000e-01  0.0
 -1.862500042000e-01  -2.000000030000e-01  0.0
 -1.931250036000e-01  -1.908888817000e-01  0.0
 -2.000000030000e-01  -1.817777604000e-01  0.0
 -1.931250036000e-01  -2.000000030000e-01  0.0
 -2.000000030000e-01  -1.908888817000e-01  0.0
 -2.000000030000e-01  -2.000000030000e-01  0.0
 -6.428571790000e-02  -1.700000018000e-01  0.0
 -7.080357372400e-02  -1.760000020400e-01  0.0
 -7.732142954800e-02  -1.820000022800e-01  0.0
 -8.383928537200e-02  -1.880000025200e-01  0.0
 -9.035714119600e-02  -1.940000027600e-01  0.0
 -9.687499702000e-02  -2.000000030000e-01  0.0
 -6.392857432000e-02  -1.760000020400e-01  0.0
 -7.044643014400e-02  -1.820000022800e-01  0.0
 -7.696428596800e-02  -1.880000025200e-01  0.0
 -8.348214179200e-02  -1.940000027600e-01  0.0
 -8.999999761600e-02  -2.000000030000e-01  0.0
 -6.357143074000e-02  -1.820000022800e-01  0.0
 -7.008928656400e-02  -1.880000025200e-01  0.0
 -7.660714238800e-02  -1.940000027600e-01  0.0
 -8.312499821200e-02  -2.000000030000e-01  0.0
 -6.321428716000e-02  -1.880000025200e-01  0.0
 -6.973214298400e-02  -1.940000027600e-01  0.0
 -7.624999880800e-02  -2.000000030000e-01  0.0
 -6.285714358000e-02  -1.940000027600e-01  0.0
 -6.937499940400e-02  -2.000000030000e-01  0.0
 -6.250000000000e-02  -2.000000030000e-01  0.0
 -2.000000030000e-01  -1.544443965000e-01  0.0
 -1.900000036000e-01  -1.478412374800e-01  0.0
 -1.800000042000e-01  -1.412380784600e-01  0.0
 -1.700000048000e-01  -1.346349194400e-01  0.0
 -1.600000054000e-01  -1.280317604200e-01  0.0
 -1.500000060000e-01  -1.214286014000e-01  0.0
 -2.000000030000e-01  -1.453332975600e-01  0.0
 -1.900000036000e-01  -1.387301385400e-01  0.0
 -1.800000042000e-01  -1.321269795200e-01  0.0
 -1.700000048000e-01  -1.255238205000e-01  0.0
 -1.600000054000e-01  -1.189206614800e-01  0.0
 -2.000000030000e-01  -1.362221986200e-01  0.0
 -1.900000036000e-01  -1.296190396000e-01  0.0
 -1.800000042000e-01  -1.230158805800e-01  0.0
 -1.700000048000e-01  -1.164127215600e-01  0.0
 -2.000000030000e-01  -1.271110996800e-01  0.0
 -1.900000036000e-01  -1.205079406600e-01  0.0
 -1.800000042000e-01  -1.139047816400e-01  0.0
 -2.000000030000e-01  -1.180000007400e-01  0.0
 -1.900000036000e-01  -1.113968417200e-01  0.0
 -2.000000030000e-01  -1.088889018000e-01  0.0
 -1.500000060000e-01  -1.214286014000e-01  0.0
 -1.600000054000e-01  -1.280317604200e-01  0.0
 -1.700000048000e-01  -1.346349194400e-01  0.0
 -1.800000042000e-01  -1.412380784600e-01  0.0
 -1.900000036000e-01  -1.478412374800e-01  0.0
 -2.000000030000e-01  -1.544443965000e-01  0.0
 -1.500000060000e-01  -1.311428814800e-01  0.0
 -1.600000054000e-01  -1.377460405000e-01  0.0
 -1.700000048000e-01  -1.443491995200e-01  0.0
 -1.800000042000e-01  -1.509523585400e-01  0.0
 -1.900000036000e-01  -1.575555175600e-01  0.0
 -1.500000060000e-01  -1.408571615600e-01  0.0
 -1.600000054000e-01  -1.474603205800e-01  0.0
 -1.700000048000e-01  -1.540634796000e-01  0.0
 -1.800000042000e-01  -1.606666386200e-01  0.0
 -1.500000060000e-01  -1.505714416400e-01  0.0
 -1.600000054000e-01  -1.571746006600e-01  0.0
 -1.700000048000e-01  -1.637777596800e-01  0.0
 -1.500000060000e-01  -1.602857217200e-01  0.0
 -1.600000054000e-01  -1.668888807400e-01  0.0
 -1.500000060000e-01  -1.700000018000e-01  0.0
 -1.500000060000e-01  -7.285714149000e-02  0.0
 -1.600000054000e-01  -8.006349355200e-02  0.0
 -1.700000048000e-01  -8.726984561400e-02  0.0
 -1.800000042000e-01  -9.447619767600e-02  0.0
 -1.900000036000e-01  -1.016825497380e-01  0.0
 -2.000000030000e-01  -1.088889018000e-01  0.0
 -1.500000060000e-01  -8.257143347200e-02  0.0
 -1.600000054000e-01  -8.977778553400e-02  0.0
 -1.700000048000e-01  -9.698413759600e-02  0.0
 -1.800000042000e-01  -1.041904896580e-01  0.0
 -1.900000036000e-01  -1.113968417200e-01  0.0
 -1.500000060000e-01  -9.228572545400e-02  0.0
 -1.600000054000e-01  -9.949207751600e-02  0.0
 -1.700000048000e-01  -1.066984295780e-01  0.0
 -1.800000042000e-01  -1.139047816400e-01  0.0
 -1.500000060000e-01  -1.020000174360e-01  0.0
 -1.600000054000e-01  -1.092063694980e-01  0.0
 -1.700000048000e-01  -1.164127215600e-01  0.0
 -1.500000060000e-01  -1.117143094180e-01  0.0
 -1.600000054000e-01  -1.189206614800e-01  0.0
 -1.500000060000e-01  -1.214286014000e-01  0.0
  1.832975030000e+00  -4.625000060000e-02  0.0
  1.841380024000e+00  -7.700000108000e-02  0.0
  1.849785018000e+00  -1.077500015600e-01  0.0
  1.858190012000e+00  -1.385000020400e-01  0.0
  1.866595006000e+00  -1.692500025200e-01  0.0
  1.875000000000e+00  -2.000000030000e-01  0.0
  1.866380024000e+00  -5.649999976400e-02  0.0
  1.874785018000e+00  -8.725000024400e-02  0.0
  1.883190012000e+00  -1.180000007240e-01  0.0
  1.891595006000e+00  -1.487500012040e-01  0.0
  1.900000000000e+00  -1.795000016840e-01  0.0
  1.899785018000e+00  -6.674999892800e-02  0.0
  1.908190012000e+00  -9.749999940800e-02  0.0
  1.916595006000e+00  -1.282499998880e-01  0.0
  1.925000000000e+00  -1.590000003680e-01  0.0
  1.933190012000e+00  -7.699999809200e-02  0.0
  1.941595006000e+00  -1.077499985720e-01  0.0
  1.950000000000e+00  -1.384999990520e-01  0.0
  1.966595006000e+00  -8.724999725600e-02  0.0
  1.975000000000e+00  -1.179999977360e-01  0.0
  2.000000000000e+00  -9.749999642000e-02  0.0
 -1.500000060000e-01  -1.700000018000e-01  0.0
 -1.444000050800e-01  -1.630000025200e-01  0.0
 -1.388000041600e-01  -1.560000032400e-01  0.0
 -1.332000032400e-01  -1.490000039600e-01  0.0
 -1.276000023200e-01  -1.420000046800e-01  0.0
 -1.220000014000e-01  -1.350000054000e-01  0.0
 -1.500000060000e-01  -1.602857217200e-01  0.0
 -1.444000050800e-01  -1.532857224400e-01  0.0
 -1.388000041600e-01  -1.462857231600e-01  0.0
 -1.332000032400e-01  -1.392857238800e-01  0.0
 -1.276000023200e-01  -1.322857246000e-01  0.0
 -1.500000060000e-01  -1.505714416400e-01  0.0
 -1.444000050800e-01  -1.435714423600e-01  0.0
 -1.388000041600e-01  -1.365714430800e-01  0.0
 -1.332000032400e-01  -1.295714438000e-01  0.0
 -1.500000060000e-01  -1.408571615600e-01  0.0
 -1.444000050800e-01  -1.338571622800e-01  0.0
 -1.388000041600e-01  -1.268571630000e-01  0.0
 -1.500000060000e-01  -1.311428814800e-01  0.0
 -1.444000050800e-01  -1.241428822000e-01  0.0
 -1.500000060000e-01  -1.214286014000e-01  0.0
  2.849999964000e-01  -2.333333530000e-02  0.0
  2.844999968800e-01  -4.666666836000e-02  0.0
  2.839999973600e-01  -7.000000142000e-02  0.0
  2.834999978400e-01  -9.333333448000e-02  0.0
  2.829999983200e-01  -1.166666675400e-01  0.0
  2.824999988000e-01  -1.400000006000e-01  0.0
  2.979999959200e-01  -3.266666830000e-02  0.0
  2.974999964000e-01  -5.600000136000e-02  0.0
  2.969999968800e-01  -7.933333442000e-02  0.0
  2.964999973600e-01  -1.026666674800e-01  0.0
  2.959999978400e-01  -1.260000005400e-01  0.0
  3.109999954400e-01  -4.200000130000e-02  0.0
  3.104999959200e-01  -6.533333436000e-02  0.0
  3.099999964000e-01  -8.866666742000e-02  0.0
  3.094999968800e-01  -1.120000004800e-01  0.0
  3.239999949600e-01  -5.133333430000e-02  0.0
  3.234999954400e-01  -7.466666736000e-02  0.0
  3.229999959200e-01  -9.800000042000e-02  0.0
  3.369999944800e-01  -6.066666730000e-02  0.0
  3.364999949600e-01  -8.400000036000e-02  0.0
  3.499999940000e-01  -7.000000030000e-02  0.0
 -1.071429029000e-01  -1.700000018000e-01  0.0
 -9.857146590000e-02  -1.700000018000e-01  0.0
 -9.000002890000e-02  -1.700000018000e-01  0.0
 -8.142859190000e-02  -1.700000018000e-01  0.0
 -7.285715490000e-02  -1.700000018000e-01  0.0
 -6.428571790000e-02  -1.700000018000e-01  0.0
 -1.037143230360e-01  -1.630000025200e-01  0.0
 -9.514288603600e-02  -1.630000025200e-01  0.0
 -8.657144903600e-02  -1.630000025200e-01  0.0
 -7.800001203600e-02  -1.630000025200e-01  0.0
 -6.942857503600e-02  -1.630000025200e-01  0.0
 -1.002857431720e-01  -1.560000032400e-01  0.0
 -9.171430617200e-02  -1.560000032400e-01  0.0
 -8.314286917200e-02  -1.560000032400e-01  0.0
 -7.457143217200e-02  -1.560000032400e-01  0.0
 -9.685716330800e-02  -1.490000039600e-01  0.0
 -8.828572630800e-02  -1.490000039600e-01  0.0
 -7.971428930800e-02  -1.490000039600e-01  0.0
 -9.342858344400e-02  -1.420000046800e-01  0.0
 -8.485714644400e-02  -1.420000046800e-01  0.0
 -9.000000358000e-02  -1.350000054000e-01  0.0
 -1.312499940000e-01  -2.000000030000e-01  0.0
 -1.264285757800e-01  -1.940000027600e-01  0.0
 -1.216071575600e-01  -1.880000025200e-01  0.0
 -1.167857393400e-01  -1.820000022800e-01  0.0
 -1.119643211200e-01  -1.760000020400e-01  0.0
 -1.071429029000e-01  -1.700000018000e-01  0.0
 -1.349999964000e-01  -1.940000027600e-01  0.0
 -1.301785781800e-01  -1.880000025200e-01  0.0
 -1.253571599600e-01  -1.820000022800e-01  0.0
 -1.205357417400e-01  -1.760000020400e-01  0.0
 -1.157143235200e-01  -1.700000018000e-01  0.0
 -1.387499988000e-01  -1.880000025200e-01  0.0
 -1.339285805800e-01  -1.820000022800e-01  0.0
 -1.291071623600e-01  -1.760000020400e-01  0.0
 -1.242857441400e-01  -1.700000018000e-01  0.0
 -1.425000012000e-01  -1.820000022800e-01  0.0
 -1.376785829800e-01  -1.760000020400e-01  0.0
 -1.328571647600e-01  -1.700000018000e-01  0.0
 -1.462500036000e-01  -1.760000020400e-01  0.0
 -1.414285853800e-01  -1.700000018000e-01  0.0
 -1.500000060000e-01  -1.700000018000e-01  0.0
[...]
POINT_DATA 7854
SCALARS field1 double 1
LOOKUP_TABLE default
 -4.196341221568e-06 
  1.492573609732e-02 
  1.811040556655e-02 
  1.898359438056e-02 
  2.114721243924e-02 
  2.494637818439e-02 
 -3.236687659705e-06 
  1.230940297300e-02 
  1.490532998249e-02 
  1.671163989860e-02 
  2.045157062895e-02 
  2.110041727804e-06 
  9.401013457529e-03 
  1.208966471670e-02 
  1.571761101586e-02 
  7.290968273951e-06 
  6.747061341694e-03 
  1.073101604719e-02 
 -3.023233810396e-06 
  5.485652204345e-03 
  2.335279074787e-06 
  4.822220092492e-02 
  4.627104085462e-02 
  4.273956144754e-02 
  3.586505668289e-02 
  2.285554809738e-02 
 -5.530434940272e-07 
  4.710780579765e-02 
  4.357347515941e-02 
  3.662863759045e-02 
  2.338316817257e-02 
 -2.034383056551e-07 
  4.435286646479e-02 
  3.734251568593e-02 
  2.388106575545e-02 
 -2.336869990138e-07 
  3.800909391105e-02 
  2.434723010658e-02 
 -2.277930391782e-07 
  2.478009785025e-02 
 -1.205023406891e-07 
 -3.442582975899e-07 
  2.494787600224e-02 
  2.872535480358e-02 
  3.272972332060e-02 
  3.618164229427e-02 
  3.895559139583e-02 
  4.119622793993e-02 
  2.918805267087e-02 
  3.251867915292e-02 
  3.585941244594e-02 
  3.871412939227e-02 
  4.099280755556e-02 
  3.317944166459e-02 
  3.610333410148e-02 
  3.885485306444e-02 
  4.113907360166e-02 
  3.692052758707e-02 
  3.947602281277e-02 
  4.168120153027e-02 
  4.041215021086e-02 
  4.262084468794e-02 
  4.365661413670e-02 
  4.119522135702e-02 
  3.895572221527e-02 
  3.618057816826e-02 
  3.273022956421e-02 
  2.872488551500e-02 
  2.494996388376e-02 
  3.942861655338e-02 
  3.673332956802e-02 
  3.339841116777e-02 
  2.927226089601e-02 
  2.452840479814e-02 
  3.763140494957e-02 
  3.451358204324e-02 
  3.062278754479e-02 
  2.577769539948e-02 
  3.590051485288e-02 
  3.238452589836e-02 
  2.792966806204e-02 
  3.430345985453e-02 
  3.036374170723e-02 
  3.271205357211e-02 
  4.811911977197e-02 
  4.818808763755e-02 
  4.785813696820e-02 
  4.706424847498e-02 
  4.570449769421e-02 
  4.365784745531e-02 
  4.708252883470e-02 
  4.665737524901e-02 
  4.581297825739e-02 
  4.448387604823e-02 
  4.262042379579e-02 
  4.584015264937e-02 
  4.494311974219e-02 
  4.357287206550e-02 
  4.168059758595e-02 
  4.442945256487e-02 
  4.305310230962e-02 
  4.113900504032e-02 
  4.287048319678e-02 
  4.099335978583e-02 
  4.119438051227e-02 
  4.928647741913e-02 
  4.046671875471e-02 
  4.182844301283e-02 
  4.245353708839e-02 
  4.574268699378e-02 
  4.693241705681e-04 
  4.360510853682e-02 
  4.367227107256e-02 
  4.268691881172e-02 
  4.295988219582e-02 
  4.025133382490e-02 
  4.345398384752e-02 
  4.379798840189e-02 
  4.248289737150e-02 
  4.336636250487e-02 
  4.337847245552e-02 
  4.309158007471e-02 
  4.184285153462e-02 
  4.385315534124e-02 
  4.167428357668e-02 
  4.520855797901e-02 
  3.271237104267e-02 
  3.524455465724e-02 
  3.738769434987e-02 
  3.927017430667e-02 
  4.094800095373e-02 
  4.242611541083e-02 
  3.430228354104e-02 
  3.660788946023e-02 
  3.863713286952e-02 
  4.042271585324e-02 
  4.198797943673e-02 
  3.590034189594e-02 
  3.808435008148e-02 
  3.998426394437e-02 
  4.162526272160e-02 
  3.763123493974e-02 
  3.964384324512e-02 
  4.136434528589e-02 
  3.942723801453e-02 
  4.121136831874e-02 
  4.119504643007e-02 
  4.426602941567e-02 
  4.302858349024e-02 
  4.359447559592e-02 
  4.371304546431e-02 
  4.373812999710e-02 
  4.533315155913e-02 
  4.337837754966e-02 
  4.338752376732e-02 
  4.366181260089e-02 
  4.361567341867e-02 
  4.380389872949e-02 
  4.345249542905e-02 
  4.360683053775e-02 
  4.367270409014e-02 
  4.358137187787e-02 
  4.384614977852e-02 
  4.367145524382e-02 
  4.364103497808e-02 
  4.382178007687e-02 
  4.376629735376e-02 
  4.333495314699e-02 
  4.198929916537e-02 
  4.341735195065e-02 
  4.474162441338e-02 
  4.598328735309e-02 
  4.714206903640e-02 
  4.822464921353e-02 
  4.317958277693e-02 
  4.453314497898e-02 
  4.581172508255e-02 
  4.701710797158e-02 
  4.815015286298e-02 
  4.412740883716e-02 
  4.541444704844e-02 
  4.664632483614e-02 
  4.782511555500e-02 
  4.501369964753e-02 
  4.624394738554e-02 
  4.744389835535e-02 
  4.587012108395e-02 
  4.706224431739e-02 
  4.670636435491e-02 
  4.245192295095e-07 
  1.939816469742e-02 
  3.065754860892e-02 
  3.678214683104e-02 
  4.007346130919e-02 
  4.198966939481e-02 
  1.833569050181e-02 
  2.914028679362e-02 
  3.514048313289e-02 
  3.845578351487e-02 
  4.047161812119e-02 
  2.743178600718e-02 
  3.331472128013e-02 
  3.668130621993e-02 
  3.880931161159e-02 
  3.125801017603e-02 
  3.470790193666e-02 
  3.698689547059e-02 
  3.248727406127e-02 
  3.496824047308e-02 
  3.271208149038e-02 
  4.242904435584e-02 
  4.327896698003e-02 
  4.412454563967e-02 
  4.497696371102e-02 
  4.583379201881e-02 
  4.670575276591e-02 
  4.325281030248e-02 
  4.400306540768e-02 
  4.477261082214e-02 
  4.556536685240e-02 
  4.638227176312e-02 
  4.400250941796e-02 
  4.466501283906e-02 
  4.536314615383e-02 
  4.610288010822e-02 
  4.466843173670e-02 
  4.524576555895e-02 
  4.587807079880e-02 
  4.523210519871e-02 
  4.572630307027e-02 
  4.566375516187e-02 
  4.670552172991e-02 
  4.583395371036e-02 
  4.497693558073e-02 
  4.412463086986e-02 
  4.327899206777e-02 
  4.242933460484e-02 
  4.587058931080e-02 
  4.497380254737e-02 
  4.406821159894e-02 
  4.315190011433e-02 
  4.222053632157e-02 
  4.501356875951e-02 
  4.406943867452e-02 
  4.310175760403e-02 
  4.210698998669e-02 
  4.412768344162e-02 
  4.312666551065e-02 
  4.208639580573e-02 
  4.317972663412e-02 
  4.211345809424e-02 
  4.199012390284e-02 
  4.937251193559e-02 
  4.833943171942e-02 
  4.749480928690e-02 
  4.679189004058e-02 
  4.619439115128e-02 
  4.566386966086e-02 
  4.913365252165e-02 
  4.811023875532e-02 
  4.722360528824e-02 
  4.643820819060e-02 
  4.572623102145e-02 
  4.869330142931e-02 
  4.767340554395e-02 
  4.674310686904e-02 
  4.587804235608e-02 
  4.811319032919e-02 
  4.708299049122e-02 
  4.610284188036e-02 
  4.743757419860e-02 
  4.638215712704e-02 
  4.670618026321e-02 
  4.242809623205e-02 
  4.325285698172e-02 
  4.400244829216e-02 
  4.466838934047e-02 
  4.523227538365e-02 
  4.566342857526e-02 
  4.198759621651e-02 
  4.288807781461e-02 
  4.370894772079e-02 
  4.443280012688e-02 
  4.504128249554e-02 
  4.162552863740e-02 
  4.261711706624e-02 
  4.351597170865e-02 
  4.430671948314e-02 
  4.136367209929e-02 
  4.245211924235e-02 
  4.343727428019e-02 
  4.121139765479e-02 
  4.240668548164e-02 
  4.119403127950e-02 
  4.937207081322e-02 
  4.913364420200e-02 
  4.869325826449e-02 
  4.811323469957e-02 
  4.743741215778e-02 
  4.670709771246e-02 
  5.023220790609e-02 
  4.980865527062e-02 
  4.924288611159e-02 
  4.858554509880e-02 
  4.787014416291e-02 
  5.105915424554e-02 
  5.045959533583e-02 
  4.977763033603e-02 
  4.905291806073e-02 
  5.182240370263e-02 
  5.106512871454e-02 
  5.028359272296e-02 
  5.250394314515e-02 
  5.161032883172e-02 
  5.308526238764e-02 
  4.199004376526e-02 
  4.211383825318e-02 
  4.208666483659e-02 
  4.210703559336e-02 
  4.222053191246e-02 
  4.242817265161e-02 
  4.047187000470e-02 
  4.059948465872e-02 
  4.062152822158e-02 
  4.072364674462e-02 
  4.094774158270e-02 
  3.880945141977e-02 
  3.896762079256e-02 
  3.906050549914e-02 
  3.927031353715e-02 
  3.698710218568e-02 
  3.719147960172e-02 
  3.738711751297e-02 
  3.496839014026e-02 
  3.524428074566e-02 
  3.271218956666e-02 
 -6.218779007358e-08 
 -2.105391666166e-07 
 -1.395750749391e-07 
 -2.541489172111e-07 
 -1.998967011893e-07 
 -8.480286469365e-07 
  2.709100486116e-02 
  2.701646911370e-02 
  2.680522459453e-02 
  2.648656340972e-02 
  2.609601228573e-02 
  4.160598972392e-02 
  4.145898527958e-02 
  4.110292393035e-02 
  4.059080879914e-02 
  4.861221547471e-02 
  4.838408733130e-02 
  4.792485105729e-02 
  5.167600106566e-02 
  5.135645590369e-02 
  5.292317534064e-02 
  4.811816116485e-02 
  4.708120389378e-02 
  4.583985489874e-02 
  4.442993758466e-02 
  4.287074071550e-02 
  4.119407773973e-02 
  4.705130743829e-02 
  4.613115265372e-02 
  4.504037775174e-02 
  4.379161036579e-02 
  4.240658021315e-02 
  4.628211323044e-02 
  4.549186022767e-02 
  4.453635231502e-02 
  4.343740684499e-02 
  4.580130772234e-02 
  4.513553163543e-02 
  4.430689639419e-02 
  4.560863326366e-02 
  4.504129165415e-02 
  4.566310393317e-02 
  5.612850612506e-02 
  5.494630533287e-02 
  5.300893931743e-02 
  5.108492681509e-02 
  4.944191174787e-02 
  4.812023358606e-02 
  5.674911037809e-02 
  5.464709544659e-02 
  5.249394263107e-02 
  5.059245388828e-02 
  4.897369426023e-02 
  5.604204599971e-02 
  5.367450949765e-02 
  5.153199237821e-02 
  4.965844128372e-02 
  5.465218870909e-02 
  5.228961608101e-02 
  5.018276003490e-02 
  5.288991630977e-02 
  5.057082254910e-02 
  5.085337959454e-02 
  5.612888084680e-02 
  5.413231553800e-02 
  5.188768170488e-02 
  4.939450786575e-02 
  4.665078574991e-02 
  4.365658019491e-02 
  5.494634764801e-02 
  5.299263469393e-02 
  5.079838930989e-02 
  4.837064927722e-02 
  4.570424781618e-02 
  5.300976250099e-02 
  5.124274125167e-02 
  4.925428567932e-02 
  4.706359949968e-02 
  5.108422013769e-02 
  4.956955310552e-02 
  4.785934460814e-02 
  4.944135721324e-02 
  4.818821815920e-02 
  4.812087824380e-02 
  5.612871539066e-02 
  5.674836944593e-02 
  5.604154041250e-02 
  5.465246262465e-02 
  5.289027763713e-02 
  5.085313343401e-02 
  5.787581041445e-02 
  5.820017325991e-02 
  5.712421379199e-02 
  5.537943162175e-02 
  5.331959396850e-02 
  5.937210314101e-02 
  5.941797196838e-02 
  5.800490868411e-02 
  5.594132165778e-02 
  6.061831043227e-02 
  6.039904721583e-02 
  5.867765277792e-02 
  6.161637402772e-02 
  6.114539835956e-02 
  6.236380981750e-02 
  5.085404527705e-02 
  5.056989687203e-02 
  5.018250392125e-02 
  4.965915109774e-02 
  4.897469731686e-02 
  4.811768355205e-02 
  4.878973384853e-02 
  4.869288999224e-02 
  4.852964121757e-02 
  4.825265012362e-02 
  4.781953360328e-02 
  4.683387890015e-02 
  4.697581026494e-02 
  4.707461592471e-02 
  4.706816974588e-02 
  4.496349081925e-02 
  4.541278028179e-02 
  4.582943603930e-02 
  4.318037688461e-02 
  4.401858790706e-02 
  4.150761596113e-02 
  4.004293973216e-02 
  4.257491064331e-02 
  4.490616953034e-02 
  4.704310472389e-02 
  4.901551590421e-02 
  5.085406655114e-02 
  3.986397573358e-02 
  4.250364348040e-02 
  4.483528324151e-02 
  4.691763103165e-02 
  4.878960875143e-02 
  3.994731441734e-02 
  4.259046498662e-02 
  4.485937294430e-02 
  4.683376255225e-02 
  4.026953150089e-02 
  4.282371467888e-02 
  4.496367621379e-02 
  4.080175826927e-02 
  4.318040569875e-02 
  4.150775971696e-02 
  5.085468949631e-02 
  5.104436070972e-02 
  5.119300311638e-02 
  5.128461739979e-02 
  5.132740826415e-02 
  5.132625660358e-02 
  5.331943697912e-02 
  5.365012235233e-02 
  5.385407797602e-02 
  5.394051227652e-02 
  5.391982553661e-02 
  5.594235283993e-02 
  5.636970996185e-02 
  5.661451982605e-02 
  5.668642356297e-02 
  5.867696378095e-02 
  5.916910315195e-02 
  5.943716503222e-02 
  6.114572807883e-02 
  6.167241904634e-02 
  6.236205962103e-02 
  4.811617219453e-02 
  4.726419918683e-02 
  4.651404662588e-02 
  4.588943147524e-02 
  4.542081448830e-02 
  4.520670898620e-02 
  4.781989446094e-02 
  4.677293055336e-02 
  4.582340314150e-02 
  4.498347256036e-02 
  4.431541092266e-02 
  4.706782907842e-02 
  4.579676265942e-02 
  4.458312818459e-02 
  4.344937447882e-02 
  4.582923190045e-02 
  4.425137726470e-02 
  4.265778846874e-02 
  4.401853312463e-02 
  4.199621141195e-02 
  4.150799255920e-02 
  4.598641986877e-02 
  4.399648588782e-02 
  4.328230445171e-02 
  4.342780603943e-02 
  4.438865870215e-02 
  4.520243586363e-02 
  4.357016508031e-02 
  4.365992223159e-02 
  4.369453289352e-02 
  4.436576151482e-02 
  4.552276451610e-02 
  4.349742478711e-02 
  4.324544571398e-02 
  4.304402169089e-02 
  4.262520954671e-02 
  4.288611752111e-02 
  4.349207497337e-02 
  4.258323502677e-02 
  3.581162980700e-02 
  4.103452749346e-02 
  2.161967744361e-04 
  3.930125059187e-02 
  4.126124457711e-02 
  4.269411457054e-02 
  4.377725178552e-02 
  4.459329022256e-02 
  4.521095126164e-02 
  4.131545114053e-02 
  4.283181427121e-02 
  4.392301507270e-02 
  4.473457365141e-02 
  4.532595468589e-02 
  4.347580942681e-02 
  4.451417992092e-02 
  4.523424653160e-02 
  4.575301585487e-02 
  4.571329570164e-02 
  4.625461868891e-02 
  4.658835996440e-02 
  4.795078700464e-02 
  4.799588153567e-02 
  5.011517211045e-02 
  4.520642997900e-02 
  4.542084968345e-02 
  4.588934404899e-02 
  4.651426007137e-02 
  4.726416798392e-02 
  4.811665129364e-02 
  4.588602860671e-02 
  4.589367565350e-02 
  4.613046061737e-02 
  4.652912477326e-02 
  4.705114651934e-02 
  4.623067785605e-02 
  4.605865542178e-02 
  4.609628856548e-02 
  4.628157009761e-02 
  4.628144115041e-02 
  4.595494599028e-02 
  4.580163744597e-02 
  4.608503116879e-02 
  4.560846893885e-02 
  4.566373444508e-02 
  1.620048880703e-02 
  1.993148817773e-02 
  2.318239337714e-02 
  2.600270087124e-02 
  2.846163694398e-02 
  3.063147299008e-02 
  1.766718942680e-02 
  2.127612094069e-02 
  2.439118539444e-02 
  2.707367408290e-02 
  2.938800482498e-02 
  1.953399369867e-02 
  2.302789069054e-02 
  2.595091881573e-02 
  2.843621973823e-02 
  2.184550208433e-02 
  2.515247009330e-02 
  2.782967316734e-02 
  2.459596531795e-02 
  2.761588158562e-02 
  2.771209895730e-02 
  3.062860138875e-02 
  3.359819057534e-02 
  3.607118621801e-02 
  3.815470453716e-02 
  3.994334641106e-02 
  4.150925773041e-02 
  3.178513844253e-02 
  3.452967871937e-02 
  3.679677121014e-02 
  3.871081084482e-02 
  4.035042587156e-02 
  3.330724412469e-02 
  3.572186580667e-02 
  3.772202292732e-02 
  3.942049894633e-02 
  3.512534541325e-02 
  3.713781176370e-02 
  3.881726224385e-02 
  3.715088140386e-02 
  3.872056535817e-02 
  3.930280062051e-02 
  3.929946014201e-02 
  3.798397677693e-02 
  3.630854520475e-02 
  3.418942310916e-02 
  3.141379086752e-02 
  2.771282493405e-02 
  3.715007728143e-02 
  3.546318958291e-02 
  3.340352293876e-02 
  3.084469193421e-02 
  2.761590661520e-02 
  3.512529043440e-02 
  3.312982428504e-02 
  3.073237849414e-02 
  2.782953156523e-02 
  3.330694949157e-02 
  3.107739121720e-02 
  2.843595867157e-02 
  3.178445109877e-02 
  2.938818914068e-02 
  3.063108592012e-02 
  3.062758391836e-02 
  3.188746034137e-02 
  3.369484588015e-02 
  3.576290131897e-02 
  3.791181074165e-02 
  4.004229888966e-02 
  3.359848957884e-02 
  3.467073918716e-02 
  3.619905470866e-02 
  3.797865159476e-02 
  3.986373602592e-02 
  3.607125555838e-02 
  3.702138731054e-02 
  3.836753729430e-02 
  3.994688441874e-02 
  3.815450457762e-02 
  3.904146155828e-02 
  4.026934429068e-02 
  3.994350359214e-02 
  4.080185614378e-02 
  4.150800652250e-02 
  4.937247307066e-02 
  4.977358356709e-02 
  5.008922189629e-02 
  5.030188074390e-02 
  5.035966085195e-02 
  5.011601980498e-02 
  4.859610443977e-02 
  4.874746999974e-02 
  4.873902657854e-02 
  4.851798084740e-02 
  4.799574204363e-02 
  4.775272091849e-02 
  4.763027409028e-02 
  4.726933537952e-02 
  4.658859155443e-02 
  4.687965608692e-02 
  4.647258337819e-02 
  4.575282668007e-02 
  4.601558443188e-02 
  4.532605795290e-02 
  4.521031603839e-02 
  3.930408651328e-02 
  3.872023598429e-02 
  3.881756707065e-02 
  3.942038288652e-02 
  4.035055056558e-02 
  4.150882536271e-02 
  4.126083549428e-02 
  4.070307528434e-02 
  4.074235276206e-02 
  4.121325904242e-02 
  4.199691643105e-02 
  4.269449077860e-02 
  4.222964869847e-02 
  4.225528173548e-02 
  4.265852153054e-02 
  4.377709816679e-02 
  4.340758286513e-02 
  4.345022279536e-02 
  4.459354149728e-02 
  4.431578084900e-02 
  4.520888822908e-02 
  4.937302331831e-02 
  4.859581803034e-02 
  4.775242234075e-02 
  4.687908162763e-02 
  4.601521246351e-02 
  4.520785346562e-02 
  4.833939162895e-02 
  4.772894436310e-02 
  4.709772668321e-02 
  4.647243166009e-02 
  4.588584918385e-02 
  4.749495811783e-02 
  4.705414756975e-02 
  4.662548045015e-02 
  4.623081964434e-02 
  4.679179209962e-02 
  4.651871304949e-02 
  4.628140780577e-02 
  4.619452482579e-02 
  4.608543668846e-02 
  4.566341654580e-02 
  3.062970316809e-02 
  2.846213530522e-02 
  2.600248506778e-02 
  2.318205532693e-02 
  1.993152368222e-02 
  1.620150784665e-02 
  2.917846796785e-02 
  2.682461816793e-02 
  2.414206993162e-02 
  2.108529192574e-02 
  1.762212347633e-02 
  2.808304980786e-02 
  2.560176800750e-02 
  2.279388703589e-02 
  1.962244887170e-02 
  2.738578188411e-02 
  2.486373876290e-02 
  2.203729223242e-02 
  2.711526701610e-02 
  2.464166373022e-02 
  2.726206251942e-02 
  5.308630323500e-02 
  5.161035463576e-02 
  5.028392397036e-02 
  4.905280546667e-02 
  4.787033783659e-02 
  4.670658366394e-02 
  5.199148903053e-02 
  5.067791304489e-02 
  4.943966979857e-02 
  4.824396994066e-02 
  4.706263243308e-02 
  5.097453337289e-02 
  4.977085080324e-02 
  4.860181948136e-02 
  4.744385550135e-02 
  5.006586734322e-02 
  4.895209105566e-02 
  4.782560283624e-02 
  4.927138069936e-02 
  4.815019636499e-02 
  4.822820781198e-02 
  4.933392635801e-02 
  4.349190023495e-02 
  4.342605951131e-02 
  4.336449024033e-02 
  4.380968408271e-02 
  4.535202480323e-02 
  4.449137602501e-02 
  4.343500262319e-02 
  4.355449098483e-02 
  4.359977198809e-02 
  4.390465029629e-02 
  4.343046743965e-02 
  4.372831744405e-02 
  4.361355423354e-02 
  4.400590370425e-02 
  4.315861994651e-02 
  4.334585706522e-02 
  4.577229268080e-02 
  4.405446100595e-02 
  4.588175152740e-02 
  4.552364099932e-02 
  5.575680465175e-02 
  5.484063235924e-02 
  5.407190480541e-02 
  5.344379800333e-02 
  5.291291188944e-02 
  5.215380613368e-02 
  5.621777132501e-02 
  5.522576873137e-02 
  5.440154253185e-02 
  5.374116622575e-02 
  5.317337292943e-02 
  5.657007494952e-02 
  5.551234621717e-02 
  5.465021155386e-02 
  5.396496817421e-02 
  5.680013410328e-02 
  5.569833689201e-02 
  5.481487892860e-02 
  5.690711763851e-02 
  5.578323001812e-02 
  5.689104802323e-02 
  5.575616753121e-02 
  5.543598602196e-02 
  5.500343186606e-02 
  5.446008555240e-02 
  5.381405892505e-02 
  5.308528860225e-02 
  5.396150964709e-02 
  5.358329223871e-02 
  5.312443659480e-02 
  5.259205157672e-02 
  5.199154003412e-02 
  5.242146794611e-02 
  5.199037793830e-02 
  5.150634809684e-02 
  5.097432945660e-02 
  5.105952165596e-02 
  5.058531862295e-02 
  5.006590991831e-02 
  4.976476894818e-02 
  4.927108953451e-02 
  4.822919127024e-02 
  4.937199475548e-02 
  5.056830060412e-02 
  5.207375434484e-02 
  5.402391572943e-02 
  5.657001688848e-02 
  5.985467340807e-02 
  4.977334222639e-02 
  5.109174476975e-02 
  5.282958573517e-02 
  5.515631687765e-02 
  5.821273231919e-02 
  5.008884909245e-02 
  5.157789385952e-02 
  5.361917231274e-02 
  5.637665502142e-02 
  5.030165336735e-02 
  5.200453041666e-02 
  5.437923042387e-02 
  5.035973015390e-02 
  5.227192919099e-02 
  5.011461086260e-02 
  5.985494436561e-02 
  5.657007366446e-02 
  5.402402124903e-02 
  5.207381110802e-02 
  5.056837942001e-02 
  4.937186644663e-02 
  5.818643775444e-02 
  5.547499086116e-02 
  5.332860473221e-02 
  5.162137255553e-02 
  5.023178449666e-02 
  5.667173610160e-02 
  5.442700889084e-02 
  5.258771945407e-02 
  5.105875412237e-02 
  5.533593495121e-02 
  5.343857214607e-02 
  5.182177995737e-02 
  5.414952710527e-02 
  5.250320964910e-02 
  5.308377020314e-02 
  6.633565562302e-02 
  6.553677234453e-02 
  6.446934110876e-02 
  6.314604235347e-02 
  6.159175971655e-02 
  5.985731504007e-02 
  6.254430122482e-02 
  6.171143801803e-02 
  6.068771605100e-02 
  5.950079936489e-02 
  5.818619897512e-02 
  5.941836609329e-02 
  5.861340434340e-02 
  5.769066569365e-02 
  5.667206296512e-02 
  5.688878090711e-02 
  5.614857242286e-02 
  5.533564128037e-02 
  5.482202315216e-02 
  5.414945930015e-02 
  5.308248241493e-02 
  5.797829497551e-02 
  5.765563859484e-02 
  5.597682061074e-02 