# vtk DataFile Version 2
NuDG++ 2D simulation
ASCII
DATASET UNSTRUCTURED_GRID

POINTS 7854 double
 -1.656250060000e-01  -2.000000030000e-01  0.0
 -1.725000054000e-01  -1.908888817000e-01  0.0
 -1.793750048000e-01  -1.817777604000e-01  0.0
 -1.862500042000e-01  -1.726666391000e-01  0.0
 -1.931250036000e-01  -1.635555178000e-01  0.0
 -2.000000030000e-01  -1.544443965000e-01  0.0
 -1.725000054000e-01  -2.000000030000e-01  0.0
 -1.793750048000e-01  -1.908888817000e-01  0.0
 -1.862500042000e-01  -1.817777604000e-01  0.0
 -1.931250036000e-01  -1.726666391000e-01  0.0
 -2.000000030000e-01  -1.635555178000e-01  0.0
 -1.793750048000e-01  -2.000000030000e-01  0.0
 -1.862500042000e-01  -1.908888817000e-01  0.0
 -1.931250036000e-01  -1.817777604000e-01  0.0
 -2.000000030000e-01  -1.726666391000e-01  0.0
 -1.862500042000e-01  -2.000000030000e-01  0.0
 -1.931250036000e-01  -1.908888817000e-01  0.0
 -2.000000030000e-01  -1.817777604000e-01  0.0
 -1.931250036000e-01  -2.000000030000e-01  0.0
 -2.000000030000e-01  -1.908888817000e-01  0.0
 -2.000000030000e-01  -2.000000030000e-01  0.0
 -6.428571790000e-02  -1.700000018000e-01  0.0
 -7.080357372400e-02  -1.760000020400e-01  0.0
 -7.732142954800e-02  -1.820000022800e-01  0.0
 -8.383928537200e-02  -1.880000025200e-01  0.0
 -9.035714119600e-02  -1.940000027600e-01  0.0
 -9.687499702000e-02  -2.000000030000e-01  0.0
 -6.392857432000e-02  -1.760000020400e-01  0.0
 -7.044643014400e-02  -1.820000022800e-01  0.0
 -7.696428596800e-02  -1.880000025200e-01  0.0
 -8.348214179200e-02  -1.940000027600e-01  0.0
 -8.999999761600e-02  -2.000000030000e-01  0.0
 -6.357143074000e-02  -1.820000022800e-01  0.0
 -7.008928656400e-02  -1.880000025200e-01  0.0
 -7.660714238800e-02  -1.940000027600e-01  0.0
 -8.312499821200e-02  -2.000000030000e-01  0.0
 -6.321428716000e-02  -1.880000025200e-01  0.0
 -6.973214298400e-02  -1.940000027600e-01  0.0
 -7.624999880800e-02  -2.000000030000e-01  0.0
 -6.285714358000e-02  -1.940000027600e-01  0.0
 -6.937499940400e-02  -2.000000030000e-01  0.0
 -6.250000000000e-02  -2.000000030000e-01  0.0
 -2.000000030000e-01  -1.544443965000e-01  0.0
 -1.900000036000e-01  -1.478412374800e-01  0.0
 -1.800000042000e-01  -1.412380784600e-01  0.0
 -1.700000048000e-01  -1.346349194400e-01  0.0
 -1.600000054000e-01  -1.280317604200e-01  0.0
 -1.500000060000e-01  -1.214286014000e-01  0.0
 -2.000000030000e-01  -1.453332975600e-01  0.0
 -1.900000036000e-01  -1.387301385400e-01  0.0
 -1.800000042000e-01  -1.321269795200e-01  0.0
 -1.700000048000e-01  -1.255238205000e-01  0.0
 -1.600000054000e-01  -1.189206614800e-01  0.0
 -2.000000030000e-01  -1.362221986200e-01  0.0
 -1.900000036000e-01  -1.296190396000e-01  0.0
 -1.800000042000e-01  -1.230158805800e-01  0.0
 -1.700000048000e-01  -1.164127215600e-01  0.0
 -2.000000030000e-01  -1.271110996800e-01  0.0
 -1.900000036000e-01  -1.205079406600e-01  0.0
 -1.800000042000e-01  -1.139047816400e-01  0.0
 -2.000000030000e-01  -1.180000007400e-01  0.0
 -1.900000036000e-01  -1.113968417200e-01  0.0
 -2.000000030000e-01  -1.088889018000e-01  0.0
 -1.500000060000e-01  -1.214286014000e-01  0.0
 -1.600000054000e-01  -1.280317604200e-01  0.0
 -1.700000048000e-01  -1.346349194400e-01  0.0
 -1.800000042000e-01  -1.412380784600e-01  0.0
 -1.900000036000e-01  -1.478412374800e-01  0.0
 -2.000000030000e-01  -1.544443965000e-01  0.0
 -1.500000060000e-01  -1.311428814800e-01  0.0
 -1.600000054000e-01  -1.377460405000e-01  0.0
 -1.700000048000e-01  -1.443491995200e-01  0.0
 -1.800000042000e-01  -1.509523585400e-01  0.0
 -1.900000036000e-01  -1.575555175600e-01  0.0
 -1.500000060000e-01  -1.408571615600e-01  0.0
 -1.600000054000e-01  -1.474603205800e-01  0.0
 -1.700000048000e-01  -1.540634796000e-01  0.0
 -1.800000042000e-01  -1.606666386200e-01  0.0
 -1.500000060000e-01  -1.505714416400e-01  0.0
 -1.600000054000e-01  -1.571746006600e-01  0.0
 -1.700000048000e-01  -1.637777596800e-01  0.0
 -1.500000060000e-01  -1.602857217200e-01  0.0
 -1.600000054000e-01  -1.668888807400e-01  0.0
 -1.500000060000e-01  -1.700000018000e-01  0.0
 -1.500000060000e-01  -7.285714149000e-02  0.0
 -1.600000054000e-01  -8.006349355200e-02  0.0
 -1.700000048000e-01  -8.726984561400e-02  0.0
 -1.800000042000e-01  -9.447619767600e-02  0.0
 -1.900000036000e-01  -1.016825497380e-01  0.0
 -2.000000030000e-01  -1.088889018000e-01  0.0
 -1.500000060000e-01  -8.257143347200e-02  0.0
 -1.600000054000e-01  -8.977778553400e-02  0.0
 -1.700000048000e-01  -9.698413759600e-02  0.0
 -1.800000042000e-01  -1.041904896580e-01  0.0
 -1.900000036000e-01  -1.113968417200e-01  0.0
 -1.500000060000e-01  -9.228572545400e-02  0.0
 -1.600000054000e-01  -9.949207751600e-02  0.0
 -1.700000048000e-01  -1.066984295780e-01  0.0
 -1.800000042000e-01  -1.139047816400e-01  0.0
 -1.500000060000e-01  -1.020000174360e-01  0.0
 -1.600000054000e-01  -1.092063694980e-01  0.0
 -1.700000048000e-01  -1.164127215600e-01  0.0
 -1.500000060000e-01  -1.117143094180e-01  0.0
 -1.600000054000e-01  -1.189206614800e-01  0.0
 -1.500000060000e-01  -1.214286014000e-01  0.0
  1.832975030000e+00  -4.625000060000e-02  0.0
  1.841380024000e+00  -7.700000108000e-02  0.0
  1.849785018000e+00  -1.077500015600e-01  0.0
  1.858190012000e+00  -1.385000020400e-01  0.0
  1.866595006000e+00  -1.692500025200e-01  0.0
  1.875000000000e+00  -2.000000030000e-01  0.0
  1.866380024000e+00  -5.649999976400e-02  0.0
  1.874785018000e+00  -8.725000024400e-02  0.0
  1.883190012000e+00  -1.180000007240e-01  0.0
  1.891595006000e+00  -1.487500012040e-01  0.0
  1.900000000000e+00  -1.795000016840e-01  0.0
  1.899785018000e+00  -6.674999892800e-02  0.0
  1.908190012000e+00  -9.749999940800e-02  0.0
  1.916595006000e+00  -1.282499998880e-01  0.0
  1.925000000000e+00  -1.590000003680e-01  0.0
  1.933190012000e+00  -7.699999809200e-02  0.0
  1.941595006000e+00  -1.077499985720e-01  0.0
  1.950000000000e+00  -1.384999990520e-01  0.0
  1.966595006000e+00  -8.724999725600e-02  0.0
  1.975000000000e+00  -1.179999977360e-01  0.0
  2.000000000000e+00  -9.749999642000e-02  0.0
 -1.500000060000e-01  -1.700000018000e-01  0.0
 -1.444000050800e-01  -1.630000025200e-01  0.0
 -1.388000041600e-01  -1.560000032400e-01  0.0
 -1.332000032400e-01  -1.490000039600e-01  0.0
 -1.276000023200e-01  -1.420000046800e-01  0.0
 -1.220000014000e-01  -1.350000054000e-01  0.0
 -1.500000060000e-01  -1.602857217200e-01  0.0
 -1.444000050800e-01  -1.532857224400e-01  0.0
 -1.388000041600e-01  -1.462857231600e-01  0.0
 -1.332000032400e-01  -1.392857238800e-01  0.0
 -1.276000023200e-01  -1.322857246000e-01  0.0
 -1.500000060000e-01  -1.505714416400e-01  0.0
 -1.444000050800e-01  -1.435714423600e-01  0.0
 -1.388000041600e-01  -1.365714430800e-01  0.0
 -1.332000032400e-01  -1.295714438000e-01  0.0
 -1.500000060000e-01  -1.408571615600e-01  0.0
 -1.444000050800e-01  -1.338571622800e-01  0.0
 -1.388000041600e-01  -1.268571630000e-01  0.0
 -1.500000060000e-01  -1.311428814800e-01  0.0
 -1.444000050800e-01  -1.241428822000e-01  0.0
 -1.500000060000e-01  -1.214286014000e-01  0.0
  2.849999964000e-01  -2.333333530000e-02  0.0
  2.844999968800e-01  -4.666666836000e-02  0.0
  2.839999973600e-01  -7.000000142000e-02  0.0
  2.834999978400e-01  -9.333333448000e-02  0.0
  2.829999983200e-01  -1.166666675400e-01  0.0
  2.824999988000e-01  -1.400000006000e-01  0.0
  2.979999959200e-01  -3.266666830000e-02  0.0
  2.974999964000e-01  -5.600000136000e-02  0.0
  2.969999968800e-01  -7.933333442000e-02  0.0
  2.964999973600e-01  -1.026666674800e-01  0.0
  2.959999978400e-01  -1.260000005400e-01  0.0
  3.109999954400e-01  -4.200000130000e-02  0.0
  3.104999959200e-01  -6.533333436000e-02  0.0
  3.099999964000e-01  -8.866666742000e-02  0.0
  3.094999968800e-01  -1.120000004800e-01  0.0
  3.239999949600e-01  -5.133333430000e-02  0.0
  3.234999954400e-01  -7.466666736000e-02  0.0
  3.229999959200e-01  -9.800000042000e-02  0.0
  3.369999944800e-01  -6.066666730000e-02  0.0
  3.364999949600e-01  -8.400000036000e-02  0.0
  3.499999940000e-01  -7.000000030000e-02  0.0
 -1.071429029000e-01  -1.700000018000e-01  0.0
 -9.857146590000e-02  -1.700000018000e-01  0.0
 -9.000002890000e-02  -1.700000018000e-01  0.0
 -8.142859190000e-02  -1.700000018000e-01  0.0
 -7.285715490000e-02  -1.700000018000e-01  0.0
 -6.428571790000e-02  -1.700000018000e-01  0.0
 -1.037143230360e-01  -1.630000025200e-01  0.0
 -9.514288603600e-02  -1.630000025200e-01  0.0
 -8.657144903600e-02  -1.630000025200e-01  0.0
 -7.800001203600e-02  -1.630000025200e-01  0.0
 -6.942857503600e-02  -1.630000025200e-01  0.0
 -1.002857431720e-01  -1.560000032400e-01  0.0
 -9.171430617200e-02  -1.560000032400e-01  0.0
 -8.314286917200e-02  -1.560000032400e-01  0.0
 -7.457143217200e-02  -1.560000032400e-01  0.0
 -9.685716330800e-02  -1.490000039600e-01  0.0
 -8.828572630800e-02  -1.490000039600e-01  0.0
 -7.971428930800e-02  -1.490000039600e-01  0.0
 -9.342858344400e-02  -1.420000046800e-01  0.0
 -8.485714644400e-02  -1.420000046800e-01  0.0
 -9.000000358000e-02  -1.350000054000e-01  0.0
 -1.312499940000e-01  -2.000000030000e-01  0.0
 -1.264285757800e-01  -1.940000027600e-01  0.0
 -1.216071575600e-01  -1.880000025200e-01  0.0
 -1.167857393400e-01  -1.820000022800e-01  0.0
 -1.119643211200e-01  -1.760000020400e-01  0.0
 -1.071429029000e-01  -1.700000018000e-01  0.0
 -1.349999964000e-01  -1.940000027600e-01  0.0
 -1.301785781800e-01  -1.880000025200e-01  0.0
 -1.253571599600e-01  -1.820000022800e-01  0.0
 -1.205357417400e-01  -1.760000020400e-01  0.0
 -1.157143235200e-01  -1.700000018000e-01  0.0
 -1.387499988000e-01  -1.880000025200e-01  0.0
 -1.339285805800e-01  -1.820000022800e-01  0.0
 -1.291071623600e-01  -1.760000020400e-01  0.0
 -1.242857441400e-01  -1.700000018000e-01  0.0
 -1.425000012000e-01  -1.820000022800e-01  0.0
 -1.376785829800e-01  -1.760000020400e-01  0.0
 -1.328571647600e-01  -1.700000018000e-01  0.0
 -1.462500036000e-01  -1.760000020400e-01  0.0
 -1.414285853800e-01  -1.700000018000e-01  0.0
 -1.500000060000e-01  -1.700000018000e-01  0.0
[...]
POINT_DATA 7854
SCALARS field1 double 1
LOOKUP_TABLE default
  1.731325731643e-06 
  1.019904766903e-02 
  1.133514548917e-02 
  1.136443528286e-02 
  1.246018368785e-02 
  1.458146048728e-02 
 -4.113138596011e-06 
  8.483086426127e-03 
  9.290907711506e-03 
  9.878439952776e-03 
  1.194831835415e-02 
  1.049363147901e-06 
  6.410361838952e-03 
  7.327736864315e-03 
  9.186161172064e-03 
  1.275851866074e-05 
  4.302543556332e-03 
  6.273761733044e-03 
 -2.278476581584e-06 
  3.201513943226e-03 
  3.891064722196e-06 
  2.780824393217e-02 
  2.710927917149e-02 
  2.587229591040e-02 
  2.293533422126e-02 
  1.571939930825e-02 
 -1.142182152068e-06 
  2.758000737399e-02 
  2.635436303937e-02 
  2.340554756747e-02 
  1.606754784608e-02 
 -3.773580360454e-07 
  2.680571760383e-02 
  2.384287287073e-02 
  1.639684542091e-02 
 -4.318264243603e-07 
  2.425151274961e-02 
  1.670467421079e-02 
 -4.249798668424e-07 
  1.698974979161e-02 
 -2.930685663232e-07 
 -5.534070755635e-07 
  1.457671803812e-02 
  1.687100247680e-02 
  1.921423824375e-02 
  2.114255599931e-02 
  2.267822308570e-02 
  2.393254745945e-02 
  1.705190784866e-02 
  1.904846136228e-02 
  2.099650695454e-02 
  2.258526114220e-02 
  2.386518502257e-02 
  1.938582962693e-02 
  2.111932357142e-02 
  2.268996477417e-02 
  2.397116737736e-02 
  2.157141478055e-02 
  2.305750658090e-02 
  2.429708792883e-02 
  2.361244310666e-02 
  2.487352358163e-02 
  2.550661656848e-02 
  2.393335358469e-02 
  2.267820277382e-02 
  2.114294667354e-02 
  1.921371102428e-02 
  1.687195406705e-02 
  1.457771579462e-02 
  2.289990544586e-02 
  2.141925924640e-02 
  1.958356362452e-02 
  1.724999186493e-02 
  1.445946680874e-02 
  2.188456405596e-02 
  2.017228749150e-02 
  1.801593023491e-02 
  1.528386037076e-02 
  2.090789255305e-02 
  1.896406770947e-02 
  1.650311555497e-02 
  2.000696523736e-02 
  1.785552037038e-02 
  1.921102383396e-02 
  2.790967661621e-02 
  2.792542565795e-02 
  2.777206704775e-02 
  2.737070774456e-02 
  2.665413024083e-02 
  2.550811045686e-02 
  2.727265574063e-02 
  2.706388678765e-02 
  2.662256391726e-02 
  2.590156240517e-02 
  2.487287173455e-02 
  2.657817783636e-02 
  2.610829699357e-02 
  2.535278663202e-02 
  2.429712240153e-02 
  2.580531402261e-02 
  2.504619042024e-02 
  2.397051409743e-02 
  2.492571306588e-02 
  2.386490809766e-02 
  2.393267076935e-02 
  2.839711219210e-02 
  2.408143246222e-02 
  2.472859417978e-02 
  2.399739724985e-02 
  2.667844991340e-02 
  7.293508378616e-04 
  2.515404898870e-02 
  2.538370221576e-02 
  2.467228092111e-02 
  2.438637223273e-02 
  2.414654153535e-02 
  2.515519731188e-02 
  2.528876677157e-02 
  2.446562205392e-02 
  2.474474532675e-02 
  2.499818930528e-02 
  2.493653641907e-02 
  2.429455661065e-02 
  2.544354752398e-02 
  2.399214326296e-02 
  2.624975430587e-02 
  1.921038710844e-02 
  2.052538534066e-02 
  2.170340180271e-02 
  2.275166762091e-02 
  2.369384770783e-02 
  2.454180526060e-02 
  2.000665672122e-02 
  2.128550991969e-02 
  2.241707945001e-02 
  2.342190179126e-02 
  2.430527584418e-02 
  2.090842781832e-02 
  2.212576815094e-02 
  2.319046506351e-02 
  2.412168036926e-02 
  2.188525494093e-02 
  2.301330770356e-02 
  2.398855808772e-02 
  2.290032280582e-02 
  2.392150955630e-02 
  2.393367478060e-02 
  2.552890570105e-02 
  2.497147179239e-02 
  2.522033930514e-02 
  2.534509560406e-02 
  2.527729245716e-02 
  2.666838361627e-02 
  2.516002070334e-02 
  2.508674399801e-02 
  2.526715096771e-02 
  2.528249150915e-02 
  2.541678407736e-02 
  2.514438783358e-02 
  2.521490825171e-02 
  2.527243759532e-02 
  2.526808709877e-02 
  2.525976311053e-02 
  2.527129514890e-02 
  2.523046136672e-02 
  2.523104506291e-02 
  2.536538835028e-02 
  2.488677666474e-02 
  2.436701157330e-02 
  2.515878826222e-02 
  2.589287375418e-02 
  2.658003670313e-02 
  2.721994414499e-02 
  2.781168496471e-02 
  2.489617709391e-02 
  2.564066142743e-02 
  2.634195839640e-02 
  2.700358241582e-02 
  2.762449317486e-02 
  2.539767470056e-02 
  2.610261815828e-02 
  2.677545664247e-02 
  2.741984373047e-02 
  2.589380482967e-02 
  2.656554099607e-02 
  2.721996204770e-02 
  2.637777684033e-02 
  2.702754720197e-02 
  2.685183998130e-02 
 -2.848398281657e-06 
  1.341221366028e-02 
  1.971089191118e-02 
  2.239237713732e-02 
  2.361494597496e-02 
  2.436750806609e-02 
  1.270018431824e-02 
  1.876639502871e-02 
  2.143119509491e-02 
  2.269871457041e-02 
  2.352213395493e-02 
  1.770194042161e-02 
  2.035867804223e-02 
  2.169361723742e-02 
  2.259689084544e-02 
  1.914858008131e-02 
  2.057611142437e-02 
  2.158246151958e-02 
  1.932167913999e-02 
  2.046133846875e-02 
  1.920799117139e-02 
  2.454069884564e-02 
  2.499565447994e-02 
  2.545315902375e-02 
  2.591405552628e-02 
  2.637901127354e-02 
  2.685134510948e-02 
  2.500703120957e-02 
  2.541155656455e-02 
  2.582718997015e-02 
  2.625554889867e-02 
  2.669720534631e-02 
  2.543670516043e-02 
  2.579231192260e-02 
  2.616857951951e-02 
  2.656776468042e-02 
  2.582079400343e-02 
  2.612903195472e-02 
  2.646834267661e-02 
  2.614795742312e-02 
  2.641102554742e-02 
  2.640258078237e-02 
  2.685120770345e-02 
  2.637910176831e-02 
  2.591407695880e-02 
  2.545311161196e-02 
  2.499572571466e-02 
  2.454076817733e-02 
  2.637787099537e-02 
  2.589014203584e-02 
  2.539718925328e-02 
  2.489861757714e-02 
  2.438926952113e-02 
  2.589347248278e-02 
  2.537826957292e-02 
  2.484934283065e-02 
  2.430491651407e-02 
  2.539763617305e-02 
  2.484980137598e-02 
  2.427935431109e-02 
  2.489608374851e-02 
  2.430854593232e-02 
  2.436764135037e-02 
  2.840383720952e-02 
  2.784339479457e-02 
  2.738854252457e-02 
  2.701094407936e-02 
  2.668991638551e-02 
  2.640268345621e-02 
  2.825403337320e-02 
  2.770089703729e-02 
  2.722137842745e-02 
  2.679633272499e-02 
  2.641094453000e-02 
  2.799670442181e-02 
  2.744327935040e-02 
  2.693859965698e-02 
  2.646840954361e-02 
  2.766153614414e-02 
  2.710150601795e-02 
  2.656782462156e-02 
  2.727318975448e-02 
  2.669716233577e-02 
  2.685191813378e-02 
  2.454117558435e-02 
  2.500714292397e-02 
  2.543670598131e-02 
  2.582092047447e-02 
  2.614809096874e-02 
  2.640223649929e-02 
  2.430559118442e-02 
  2.482325517741e-02 
  2.529117982493e-02 
  2.570621505186e-02 
  2.605881529518e-02 
  2.412143918229e-02 
  2.468821728704e-02 
  2.520318280558e-02 
  2.565586322083e-02 
  2.398849945251e-02 
  2.461503927031e-02 
  2.518313212635e-02 
  2.392146512573e-02 
  2.461576086020e-02 
  2.393383065331e-02 
  2.840348664825e-02 
  2.825404863437e-02 
  2.799665141355e-02 
  2.766155163305e-02 
  2.727301735997e-02 
  2.685278297338e-02 
  2.885545151361e-02 
  2.860798553124e-02 
  2.828171396617e-02 
  2.790528283538e-02 
  2.749537593316e-02 
  2.929207930889e-02 
  2.894874618802e-02 
  2.855969404466e-02 
  2.814683211259e-02 
  2.969446259702e-02 
  2.926516645249e-02 
  2.882240648638e-02 
  3.005268774336e-02 
  2.954928183177e-02 
  3.035367331560e-02 
  2.436777180150e-02 
  2.430871242358e-02 
  2.427957117501e-02 
  2.430504104392e-02 
  2.438891803729e-02 
  2.454142926696e-02 
  2.352237359360e-02 
  2.347431822304e-02 
  2.347393842226e-02 
  2.354672611815e-02 
  2.369409660393e-02 
  2.259695462096e-02 
  2.257464898132e-02 
  2.261803723453e-02 
  2.275191034295e-02 
  2.158277739567e-02 
  2.159732220156e-02 
  2.170302317478e-02 
  2.046125650078e-02 
  2.052545254531e-02 
  1.920936577986e-02 
 -3.848049342352e-07 
 -4.439222275709e-07 
 -3.665179170799e-07 
 -5.021840318755e-07 
 -4.228842337990e-07 
 -1.351587016378e-06 
  1.853459805623e-02 
  1.849663579719e-02 
  1.837579267059e-02 
  1.818549368021e-02 
  1.794937765190e-02 
  2.647323870781e-02 
  2.640285245067e-02 
  2.620781133393e-02 
  2.591643007305e-02 
  2.929027224498e-02 
  2.917503122342e-02 
  2.893227289687e-02 
  3.015115037755e-02 
  2.998540326115e-02 
  3.040863785234e-02 
  2.790755057159e-02 
  2.727230173338e-02 
  2.657801725441e-02 
  2.580529721142e-02 
  2.492527114840e-02 
  2.393355712349e-02 
  2.727025021028e-02 
  2.673472480359e-02 
  2.612407565151e-02 
  2.542000638084e-02 
  2.461581987809e-02 
  2.682472319705e-02 
  2.636759852262e-02 
  2.581870484830e-02 
  2.518314813120e-02 
  2.654226457826e-02 
  2.614358227498e-02 
  2.565581513990e-02 
  2.640678418404e-02 
  2.605888566850e-02 
  2.640178985002e-02 
  3.279856987729e-02 
  3.197034651151e-02 
  3.073977490675e-02 
  2.961195377041e-02 
  2.866709077478e-02 
  2.790879853534e-02 
  3.301369990531e-02 
  3.167449746876e-02 
  3.040525798885e-02 
  2.933874454937e-02 
  2.843170974256e-02 
  3.246574456444e-02 
  3.107223066094e-02 
  2.985867523280e-02 
  2.881341013745e-02 
  3.162283092730e-02 
  3.027638756872e-02 
  2.908278810973e-02 
  3.061042126718e-02 
  2.929815720545e-02 
  2.951157319140e-02 
  3.279545333619e-02 
  3.162967777860e-02 
  3.031746751822e-02 
  2.886012631045e-02 
  2.725664508268e-02 
  2.550713396213e-02 
  3.197104302938e-02 
  3.084936380552e-02 
  2.958380092903e-02 
  2.818857450568e-02 
  2.665412401532e-02 
  3.073882474628e-02 
  2.972904874122e-02 
  2.860645958360e-02 
  2.737040888361e-02 
  2.961304357538e-02 
  2.874513407906e-02 
  2.777253288437e-02 
  2.866617242247e-02 
  2.792468353964e-02 
  2.791244343349e-02 
  3.279609699762e-02 
  3.301410542299e-02 
  3.246499120803e-02 
  3.162320404323e-02 
  3.060951245679e-02 
  2.951522161007e-02 
  3.381583849688e-02 
  3.384991758155e-02 
  3.306702768571e-02 
  3.203791050358e-02 
  3.087621636449e-02 
  3.469005611755e-02 
  3.454414472205e-02 
  3.356207547601e-02 
  3.236497410292e-02 
  3.541898879942e-02 
  3.511305509593e-02 
  3.395381255047e-02 
  3.600306717416e-02 
  3.553610231853e-02 
  3.643921612774e-02 
  2.950790426930e-02 
  2.929735470050e-02 
  2.908186865696e-02 
  2.881297880558e-02 
  2.843083521126e-02 
  2.790639346363e-02 
  2.833640469049e-02 
  2.825619706356e-02 
  2.815814991423e-02 
  2.800687123686e-02 
  2.774978980950e-02 
  2.724200083048e-02 
  2.730042300942e-02 
  2.734013160689e-02 
  2.732557091406e-02 
  2.619769313457e-02 
  2.642339780378e-02 
  2.663173301162e-02 
  2.520389919160e-02 
  2.564234361457e-02 
  2.425922251369e-02 
  2.348280361782e-02 
  2.489500433477e-02 
  2.618392601146e-02 
  2.737699477421e-02 
  2.847563501655e-02 
  2.950649238314e-02 
  2.339848203392e-02 
  2.485364312118e-02 
  2.614544775751e-02 
  2.730002017627e-02 
  2.833652597572e-02 
  2.344148431355e-02 
  2.489936187734e-02 
  2.615233743069e-02 
  2.724168541098e-02 
  2.361176355070e-02 
  2.502068339564e-02 
  2.619803416357e-02 
  2.389348380206e-02 
  2.520371609446e-02 
  2.426074014605e-02 
  2.951011287817e-02 
  2.962938233294e-02 
  2.970520481242e-02 
  2.973901222487e-02 
  2.975651029789e-02 
  2.977727898034e-02 
  3.087724499930e-02 
  3.107678750014e-02 
  3.118235786012e-02 
  3.122900540924e-02 
  3.120785379461e-02 
  3.236343381434e-02 
  3.259434047840e-02 
  3.273210462473e-02 
  3.277794791301e-02 
  3.395552883174e-02 
  3.423596839890e-02 
  3.438581057512e-02 
  3.553523276886e-02 
  3.584419348762e-02 
  3.644339479323e-02 
  2.790502233676e-02 
  2.741323519357e-02 
  2.698013301587e-02 
  2.661899668318e-02 
  2.634641251731e-02 
  2.621754253090e-02 
  2.775001709066e-02 
  2.714408853811e-02 
  2.660056575777e-02 
  2.612543207273e-02 
  2.574665654207e-02 
  2.732528744180e-02 
  2.660195950674e-02 
  2.592088075791e-02 
  2.529111299148e-02 
  2.663197445428e-02 
  2.575316520687e-02 
  2.487362202502e-02 
  2.564215660331e-02 
  2.452467960324e-02 
  2.426085894046e-02 
  2.651517209517e-02 
  2.549957974146e-02 
  2.524290221553e-02 
  2.524587266652e-02 
  2.555809360178e-02 
  2.653786535710e-02 
  2.515087361852e-02 
  2.536390385468e-02 
  2.536468907900e-02 
  2.548903694990e-02 
  2.558931917036e-02 
  2.517235674729e-02 
  2.498404238501e-02 
  2.493479189033e-02 
  2.450938039158e-02 
  2.515747972193e-02 
  2.522987779748e-02 
  2.500704300842e-02 
  2.255786802437e-02 
  2.508388443498e-02 
  3.648117608807e-04 
  2.304593203972e-02 
  2.408694299748e-02 
  2.485665863289e-02 
  2.544200671670e-02 
  2.588390721284e-02 
  2.622031808717e-02 
  2.414951264584e-02 
  2.493608755171e-02 
  2.551715511812e-02 
  2.595400903669e-02 
  2.627241964948e-02 
  2.532791990139e-02 
  2.584534721593e-02 
  2.622224995681e-02 
  2.649883132555e-02 
  2.654288272874e-02 
  2.678495382378e-02 
  2.695010590286e-02 
  2.775318035794e-02 
  2.772415750478e-02 
  2.891885558771e-02 
  2.621715824536e-02 
  2.634646830104e-02 
  2.661890336585e-02 
  2.698022516561e-02 
  2.741313548015e-02 
  2.790551883863e-02 
  2.657620934631e-02 
  2.659569271106e-02 
  2.674366927755e-02 
  2.697618242571e-02 
  2.727040554870e-02 
  2.675335748392e-02 
  2.667846565939e-02 
  2.671486828988e-02 
  2.682419937028e-02 
  2.677116703566e-02 
  2.661176024743e-02 
  2.654229717107e-02 
  2.665202515323e-02 
  2.640656664419e-02 
  2.640239644086e-02 
  1.029211266540e-02 
  1.242532652801e-02 
  1.423655181648e-02 
  1.578648709116e-02 
  1.712969140977e-02 
  1.831895499858e-02 
  1.120163496812e-02 
  1.322492975482e-02 
  1.493375727574e-02 
  1.639093151291e-02 
  1.764343168311e-02 
  1.234662081181e-02 
  1.426351916855e-02 
  1.583142757629e-02 
  1.715803235194e-02 
  1.375728187951e-02 
  1.551630122402e-02 
  1.690862446351e-02 
  1.542464122843e-02 
  1.695929129965e-02 
  1.729162322511e-02 
  1.831754666062e-02 
  1.993378002914e-02 
  2.128664010345e-02 
  2.242669562112e-02 
  2.340814329041e-02 
  2.426365923265e-02 
  1.894633728787e-02 
  2.043857178109e-02 
  2.167593497969e-02 
  2.272308776490e-02 
  2.362302847160e-02 
  1.978019661336e-02 
  2.108524685438e-02 
  2.217480801547e-02 
  2.310399140885e-02 
  2.077516548032e-02 
  2.185377911451e-02 
  2.276640936291e-02 
  2.187920528266e-02 
  2.271232126689e-02 
  2.304703759856e-02 
  2.304460222541e-02 
  2.237363102902e-02 
  2.153471374420e-02 
  2.050051370401e-02 
  1.914976847430e-02 
  1.729202186146e-02 
  2.187848417545e-02 
  2.099429220080e-02 
  1.993135495312e-02 
  1.862221051421e-02 
  1.695932618794e-02 
  2.077503241261e-02 
  1.971214666598e-02 
  1.844357135984e-02 
  1.690850048894e-02 
  1.977984903015e-02 
  1.857934830355e-02 
  1.715787273231e-02 
  1.894573699773e-02 
  1.764354467835e-02 
  1.831880975655e-02 
  1.831750921886e-02 
  1.900338147512e-02 
  2.000078423467e-02 
  2.113914511264e-02 
  2.232437684485e-02 
  2.348464558928e-02 
  1.993396824413e-02 
  2.052934114328e-02 
  2.137421783862e-02 
  2.235827448480e-02 
  2.339841064029e-02 
  2.128684727520e-02 
  2.181721768223e-02 
  2.256589060023e-02 
  2.344141017941e-02 
  2.242647450246e-02 
  2.292654519268e-02 
  2.361190902168e-02 
  2.340836830053e-02 
  2.389377788653e-02 
  2.426217602239e-02 
  2.840341127505e-02 
  2.863047439435e-02 
  2.881283116208e-02 
  2.894113772859e-02 
  2.899363508177e-02 
  2.891944951269e-02 
  2.799633471006e-02 
  2.808871181020e-02 
  2.809476227558e-02 
  2.798605446474e-02 
  2.772406236963e-02 
  2.755394930027e-02 
  2.749680263023e-02 
  2.731005975353e-02 
  2.695026719409e-02 
  2.709575445643e-02 
  2.688232186040e-02 
  2.649869576387e-02 
  2.664130360087e-02 
  2.627249809325e-02 
  2.621984556608e-02 
  2.304810420914e-02 
  2.271208067359e-02 
  2.276667081169e-02 
  2.310384256084e-02 
  2.362318729306e-02 
  2.426296102114e-02 
  2.408671015318e-02 
  2.378453024033e-02 
  2.381521826779e-02 
  2.408372510499e-02 
  2.452524432476e-02 
  2.485696896505e-02 
  2.461377542792e-02 
  2.463978602624e-02 
  2.487418823701e-02 
  2.544190194665e-02 
  2.525370822793e-02 
  2.529162732030e-02 
  2.588410856250e-02 
  2.574699885978e-02 
  2.621891102603e-02 
  2.840411479182e-02 
  2.799609137954e-02 
  2.755378122566e-02 
  2.709541026861e-02 
  2.664101225064e-02 
  2.621812082012e-02 
  2.784336418537e-02 
  2.752872843118e-02 
  2.720200100083e-02 
  2.687835650560e-02 
  2.657607324988e-02 
  2.738864501034e-02 
  2.716643026636e-02 
  2.695119908515e-02 
  2.675358752001e-02 
  2.701086954797e-02 
  2.688117901161e-02 
  2.677122445544e-02 
  2.669004670559e-02 
  2.665231277689e-02 
  2.640227830694e-02 
  1.831802332632e-02 
  1.713000106748e-02 
  1.578639769060e-02 
  1.423626292548e-02 
  1.242541462063e-02 
  1.029260916687e-02 
  1.751893525090e-02 
  1.622671925729e-02 
  1.474714328508e-02 
  1.304219374431e-02 
  1.107617119077e-02 
  1.691818786616e-02 
  1.554991146710e-02 
  1.399051854619e-02 
  1.220441703598e-02 
  1.653587936632e-02 
  1.514093212991e-02 
  1.356519746613e-02 
  1.638789304260e-02 
  1.501836351872e-02 
  1.646666671259e-02 
  3.035413661245e-02 
  2.954917158847e-02 
  2.882255539159e-02 
  2.814668958688e-02 
  2.749542982799e-02 
  2.685245334889e-02 
  2.973679844926e-02 
  2.901709975230e-02 
  2.833834234487e-02 
  2.768021718306e-02 
  2.702781966949e-02 
  2.916441900891e-02 
  2.850394172419e-02 
  2.785976449056e-02 
  2.722003990431e-02 
  2.865098511826e-02 
  2.803725471694e-02 
  2.742005872879e-02 
  2.821062672813e-02 
  2.762474649756e-02 
  2.781307782812e-02 
  2.826610549554e-02 
  2.509657427145e-02 
  2.510868397587e-02 
  2.498592032361e-02 
  2.536823520741e-02 
  2.638635705132e-02 
  2.529045980443e-02 
  2.486863903342e-02 
  2.495712184421e-02 
  2.494160295256e-02 
  2.553452605838e-02 
  2.487098112850e-02 
  2.502582853684e-02 
  2.498046053378e-02 
  2.528884044873e-02 
  2.488918835436e-02 
  2.482652170811e-02 
  2.538918827538e-02 
  2.520906604723e-02 
  2.581386836580e-02 
  2.573967664261e-02 
  3.176543487456e-02 
  3.125448940525e-02 
  3.082467272918e-02 
  3.047591006641e-02 
  3.020516685785e-02 
  2.997376983950e-02 
  3.201209548138e-02 
  3.145930286348e-02 
  3.100089574673e-02 
  3.063658479057e-02 
  3.035366721678e-02 
  3.219912849740e-02 
  3.161162611237e-02 
  3.113408870841e-02 
  3.075739862057e-02 
  3.231958772513e-02 
  3.170970643736e-02 
  3.122187787162e-02 
  3.237430184088e-02 
  3.175442021342e-02 
  3.236135366048e-02 
  3.176497453454e-02 
  3.159836780843e-02 
  3.137108477915e-02 
  3.108411967236e-02 
  3.074153914940e-02 
  3.035318393211e-02 
  3.078036922386e-02 
  3.058047127317e-02 
  3.033750451490e-02 
  3.005501703096e-02 
  2.973686131058e-02 
  2.993186862609e-02 
  2.970386627425e-02 
  2.944704326765e-02 
  2.916422071602e-02 
  2.918113261053e-02 
  2.892767575762e-02 
  2.865105713123e-02 
  2.849143761577e-02 
  2.821039500326e-02 
  2.781383753315e-02 
  2.840287747347e-02 
  2.905372703187e-02 
  2.987274052114e-02 
  3.093608168266e-02 
  3.233256175012e-02 
  3.417727489542e-02 
  2.863035532992e-02 
  2.934888403487e-02 
  3.029692551203e-02 
  3.157509786844e-02 
  3.329902977926e-02 
  2.881256763268e-02 
  2.962594659160e-02 
  3.074913029137e-02 
  3.231509420718e-02 
  2.894100432719e-02 
  2.987998890822e-02 
  3.123915521660e-02 
  2.899368152182e-02 
  3.009665536349e-02 
  2.891854971493e-02 
  3.417731634089e-02 
  3.233264182512e-02 
  3.093613531444e-02 
  2.987280859020e-02 
  2.905378637864e-02 
  2.840287975369e-02 
  3.319192225894e-02 
  3.171014471742e-02 
  3.054180619895e-02 
  2.961243908628e-02 
  2.885513961391e-02 
  3.234591756575e-02 
  3.112505791099e-02 
  3.012419145823e-02 
  2.929167206603e-02 
  3.160512231969e-02 
  3.057364327729e-02 
  2.969396469817e-02 
  3.094766841234e-02 
  3.005208640830e-02 
  3.035260165987e-02 
  3.764212600967e-02 
  3.722452436743e-02 
  3.666120047572e-02 
  3.595617781674e-02 
  3.511934726147e-02 
  3.417916942546e-02 
  3.552060663182e-02 
  3.507911011989e-02 
  3.453276698155e-02 
  3.389675986132e-02 
  3.319175967515e-02 
  3.381204736393e-02 
  3.338376571533e-02 
  3.289104944856e-02 
  3.234621953033e-02 
  3.243327974928e-02 
  3.203900766501e-02 
  3.160490366444e-02 
  3.130644748697e-02 
  3.094767833984e-02 
  3.035149201918e-02 
  3.574716138554e-02 
  3.455766749352e-02 
  3.289707467228e-02 