# vtk DataFile Version 2
NuDG++ 2D simulation
ASCII
DATASET UNSTRUCTURED_GRID

POINTS 13286 double
 -1.000000000000e+00  -7.500000000000e-01  0.0
 -1.000000000000e+00  -7.708333333333e-01  0.0
 -1.000000000000e+00  -7.916666666667e-01  0.0
 -1.000000000000e+00  -8.125000000000e-01  0.0
 -1.000000000000e+00  -8.333333333333e-01  0.0
 -1.000000000000e+00  -8.541666666667e-01  0.0
 -1.000000000000e+00  -8.750000000000e-01  0.0
 -1.000000000000e+00  -8.958333333333e-01  0.0
 -1.000000000000e+00  -9.166666666667e-01  0.0
 -1.000000000000e+00  -9.375000000000e-01  0.0
 -1.000000000000e+00  -9.583333333333e-01  0.0
 -1.000000000000e+00  -9.791666666667e-01  0.0
 -1.000000000000e+00  -1.000000000000e+00  0.0
 -9.854429568065e-01  -7.562054016279e-01  0.0
 -9.854429568065e-01  -7.770387349612e-01  0.0
 -9.854429568065e-01  -7.978720682946e-01  0.0
 -9.854429568065e-01  -8.187054016279e-01  0.0
 -9.854429568065e-01  -8.395387349612e-01  0.0
 -9.854429568065e-01  -8.603720682946e-01  0.0
 -9.854429568065e-01  -8.812054016279e-01  0.0
 -9.854429568065e-01  -9.020387349613e-01  0.0
 -9.854429568065e-01  -9.228720682946e-01  0.0
 -9.854429568065e-01  -9.437054016279e-01  0.0
 -9.854429568065e-01  -9.645387349612e-01  0.0
 -9.854429568065e-01  -9.853720682946e-01  0.0
 -9.708859136130e-01  -7.624108032558e-01  0.0
 -9.708859136130e-01  -7.832441365892e-01  0.0
 -9.708859136130e-01  -8.040774699225e-01  0.0
 -9.708859136130e-01  -8.249108032558e-01  0.0
 -9.708859136130e-01  -8.457441365892e-01  0.0
 -9.708859136130e-01  -8.665774699225e-01  0.0
 -9.708859136130e-01  -8.874108032558e-01  0.0
 -9.708859136130e-01  -9.082441365892e-01  0.0
 -9.708859136130e-01  -9.290774699225e-01  0.0
 -9.708859136130e-01  -9.499108032558e-01  0.0
 -9.708859136130e-01  -9.707441365892e-01  0.0
 -9.563288704195e-01  -7.686162048838e-01  0.0
 -9.563288704195e-01  -7.894495382171e-01  0.0
 -9.563288704195e-01  -8.102828715504e-01  0.0
 -9.563288704195e-01  -8.311162048838e-01  0.0
 -9.563288704195e-01  -8.519495382171e-01  0.0
 -9.563288704195e-01  -8.727828715504e-01  0.0
 -9.563288704195e-01  -8.936162048838e-01  0.0
 -9.563288704195e-01  -9.144495382171e-01  0.0
 -9.563288704195e-01  -9.352828715504e-01  0.0
 -9.563288704195e-01  -9.561162048838e-01  0.0
 -9.417718272260e-01  -7.748216065117e-01  0.0
 -9.417718272260e-01  -7.956549398450e-01  0.0
 -9.417718272260e-01  -8.164882731783e-01  0.0
 -9.417718272260e-01  -8.373216065117e-01  0.0
 -9.417718272260e-01  -8.581549398450e-01  0.0
 -9.417718272260e-01  -8.789882731783e-01  0.0
 -9.417718272260e-01  -8.998216065117e-01  0.0
 -9.417718272260e-01  -9.206549398450e-01  0.0
 -9.417718272260e-01  -9.414882731783e-01  0.0
 -9.272147840325e-01  -7.810270081396e-01  0.0
 -9.272147840325e-01  -8.018603414729e-01  0.0
 -9.272147840325e-01  -8.226936748063e-01  0.0
 -9.272147840325e-01  -8.435270081396e-01  0.0
 -9.272147840325e-01  -8.643603414729e-01  0.0
 -9.272147840325e-01  -8.851936748062e-01  0.0
 -9.272147840325e-01  -9.060270081396e-01  0.0
 -9.272147840325e-01  -9.268603414729e-01  0.0
 -9.126577408390e-01  -7.872324097675e-01  0.0
 -9.126577408390e-01  -8.080657431008e-01  0.0
 -9.126577408390e-01  -8.288990764342e-01  0.0
 -9.126577408390e-01  -8.497324097675e-01  0.0
 -9.126577408390e-01  -8.705657431008e-01  0.0
 -9.126577408390e-01  -8.913990764342e-01  0.0
 -9.126577408390e-01  -9.122324097675e-01  0.0
 -8.981006976455e-01  -7.934378113954e-01  0.0
 -8.981006976455e-01  -8.142711447287e-01  0.0
 -8.981006976455e-01  -8.351044780621e-01  0.0
 -8.981006976455e-01  -8.559378113954e-01  0.0
 -8.981006976455e-01  -8.767711447288e-01  0.0
 -8.981006976455e-01  -8.976044780621e-01  0.0
 -8.835436544520e-01  -7.996432130233e-01  0.0
 -8.835436544520e-01  -8.204765463567e-01  0.0
 -8.835436544520e-01  -8.413098796900e-01  0.0
 -8.835436544520e-01  -8.621432130233e-01  0.0
 -8.835436544520e-01  -8.829765463567e-01  0.0
 -8.689866112585e-01  -8.058486146512e-01  0.0
 -8.689866112585e-01  -8.266819479846e-01  0.0
 -8.689866112585e-01  -8.475152813179e-01  0.0
 -8.689866112585e-01  -8.683486146513e-01  0.0
 -8.544295680650e-01  -8.120540162792e-01  0.0
 -8.544295680650e-01  -8.328873496125e-01  0.0
 -8.544295680650e-01  -8.537206829458e-01  0.0
 -8.398725248715e-01  -8.182594179071e-01  0.0
 -8.398725248715e-01  -8.390927512404e-01  0.0
 -8.253154816780e-01  -8.244648195350e-01  0.0
 -8.253154816780e-01  -8.244648195350e-01  0.0
 -8.398725248715e-01  -8.390927512404e-01  0.0
 -8.544295680650e-01  -8.537206829458e-01  0.0
 -8.689866112585e-01  -8.683486146512e-01  0.0
 -8.835436544520e-01  -8.829765463567e-01  0.0
 -8.981006976455e-01  -8.976044780621e-01  0.0
 -9.126577408390e-01  -9.122324097675e-01  0.0
 -9.272147840325e-01  -9.268603414729e-01  0.0
 -9.417718272260e-01  -9.414882731783e-01  0.0
 -9.563288704195e-01  -9.561162048838e-01  0.0
 -9.708859136130e-01  -9.707441365892e-01  0.0
 -9.854429568065e-01  -9.853720682946e-01  0.0
 -1.000000000000e+00  -1.000000000000e+00  0.0
 -8.190391915382e-01  -8.390927512404e-01  0.0
 -8.335962347317e-01  -8.537206829458e-01  0.0
 -8.481532779252e-01  -8.683486146513e-01  0.0
 -8.627103211187e-01  -8.829765463567e-01  0.0
 -8.772673643122e-01  -8.976044780621e-01  0.0
 -8.918244075057e-01  -9.122324097675e-01  0.0
 -9.063814506992e-01  -9.268603414729e-01  0.0
 -9.209384938927e-01  -9.414882731783e-01  0.0
 -9.354955370862e-01  -9.561162048837e-01  0.0
 -9.500525802797e-01  -9.707441365892e-01  0.0
 -9.646096234732e-01  -9.853720682946e-01  0.0
 -9.791666666667e-01  -1.000000000000e+00  0.0
 -8.127629013983e-01  -8.537206829458e-01  0.0
 -8.273199445918e-01  -8.683486146512e-01  0.0
 -8.418769877853e-01  -8.829765463567e-01  0.0
 -8.564340309788e-01  -8.976044780621e-01  0.0
 -8.709910741723e-01  -9.122324097675e-01  0.0
 -8.855481173658e-01  -9.268603414729e-01  0.0
 -9.001051605593e-01  -9.414882731783e-01  0.0
 -9.146622037528e-01  -9.561162048838e-01  0.0
 -9.292192469463e-01  -9.707441365892e-01  0.0
 -9.437762901398e-01  -9.853720682946e-01  0.0
 -9.583333333333e-01  -1.000000000000e+00  0.0
 -8.064866112585e-01  -8.683486146513e-01  0.0
 -8.210436544520e-01  -8.829765463567e-01  0.0
 -8.356006976455e-01  -8.976044780621e-01  0.0
 -8.501577408390e-01  -9.122324097675e-01  0.0
 -8.647147840325e-01  -9.268603414729e-01  0.0
 -8.792718272260e-01  -9.414882731783e-01  0.0
 -8.938288704195e-01  -9.561162048837e-01  0.0
 -9.083859136130e-01  -9.707441365892e-01  0.0
 -9.229429568065e-01  -9.853720682946e-01  0.0
 -9.375000000000e-01  -1.000000000000e+00  0.0
 -8.002103211187e-01  -8.829765463567e-01  0.0
 -8.147673643122e-01  -8.976044780621e-01  0.0
 -8.293244075057e-01  -9.122324097675e-01  0.0
 -8.438814506992e-01  -9.268603414729e-01  0.0
 -8.584384938927e-01  -9.414882731783e-01  0.0
 -8.729955370862e-01  -9.561162048838e-01  0.0
 -8.875525802797e-01  -9.707441365892e-01  0.0
 -9.021096234732e-01  -9.853720682946e-01  0.0
 -9.166666666667e-01  -1.000000000000e+00  0.0
 -7.939340309788e-01  -8.976044780621e-01  0.0
 -8.084910741723e-01  -9.122324097675e-01  0.0
 -8.230481173658e-01  -9.268603414729e-01  0.0
 -8.376051605593e-01  -9.414882731783e-01  0.0
 -8.521622037528e-01  -9.561162048837e-01  0.0
 -8.667192469463e-01  -9.707441365892e-01  0.0
 -8.812762901398e-01  -9.853720682946e-01  0.0
 -8.958333333333e-01  -1.000000000000e+00  0.0
 -7.876577408390e-01  -9.122324097675e-01  0.0
 -8.022147840325e-01  -9.268603414729e-01  0.0
 -8.167718272260e-01  -9.414882731783e-01  0.0
 -8.313288704195e-01  -9.561162048837e-01  0.0
 -8.458859136130e-01  -9.707441365892e-01  0.0
 -8.604429568065e-01  -9.853720682946e-01  0.0
 -8.750000000000e-01  -1.000000000000e+00  0.0
 -7.813814506992e-01  -9.268603414729e-01  0.0
 -7.959384938927e-01  -9.414882731783e-01  0.0
 -8.104955370862e-01  -9.561162048837e-01  0.0
 -8.250525802797e-01  -9.707441365892e-01  0.0
 -8.396096234732e-01  -9.853720682946e-01  0.0
 -8.541666666667e-01  -1.000000000000e+00  0.0
 -7.751051605593e-01  -9.414882731783e-01  0.0
 -7.896622037528e-01  -9.561162048837e-01  0.0
 -8.042192469463e-01  -9.707441365892e-01  0.0
 -8.187762901398e-01  -9.853720682946e-01  0.0
 -8.333333333333e-01  -1.000000000000e+00  0.0
 -7.688288704195e-01  -9.561162048837e-01  0.0
 -7.833859136130e-01  -9.707441365892e-01  0.0
 -7.979429568065e-01  -9.853720682946e-01  0.0
 -8.125000000000e-01  -1.000000000000e+00  0.0
 -7.625525802797e-01  -9.707441365892e-01  0.0
 -7.771096234732e-01  -9.853720682946e-01  0.0
 -7.916666666667e-01  -1.000000000000e+00  0.0
 -7.562762901398e-01  -9.853720682946e-01  0.0
 -7.708333333333e-01  -1.000000000000e+00  0.0
 -7.500000000000e-01  -1.000000000000e+00  0.0
  7.500000000000e-01  -1.000000000000e+00  0.0
  7.708333333333e-01  -1.000000000000e+00  0.0
  7.916666666667e-01  -1.000000000000e+00  0.0
  8.125000000000e-01  -1.000000000000e+00  0.0
  8.333333333333e-01  -1.000000000000e+00  0.0
  8.541666666667e-01  -1.000000000000e+00  0.0
  8.750000000000e-01  -1.000000000000e+00  0.0
  8.958333333333e-01  -1.000000000000e+00  0.0
  9.166666666667e-01  -1.000000000000e+00  0.0
  9.375000000000e-01  -1.000000000000e+00  0.0
  9.583333333333e-01  -1.000000000000e+00  0.0
  9.791666666667e-01  -1.000000000000e+00  0.0
  1.000000000000e+00  -1.000000000000e+00  0.0
  7.563790508287e-01  -9.849866634216e-01  0.0
  7.772123841620e-01  -9.849866634216e-01  0.0
  7.980457174953e-01  -9.849866634216e-01  0.0
  8.188790508287e-01  -9.849866634216e-01  0.0
  8.397123841620e-01  -9.849866634216e-01  0.0
  8.605457174953e-01  -9.849866634216e-01  0.0
  8.813790508287e-01  -9.849866634216e-01  0.0
  9.022123841620e-01  -9.849866634216e-01  0.0
  9.230457174953e-01  -9.849866634216e-01  0.0
  9.438790508287e-01  -9.849866634216e-01  0.0
  9.647123841620e-01  -9.849866634216e-01  0.0
  9.855457174953e-01  -9.849866634216e-01  0.0
  7.627581016573e-01  -9.699733268432e-01  0.0
  7.835914349907e-01  -9.699733268432e-01  0.0
  8.044247683240e-01  -9.699733268432e-01  0.0
[...]
POINT_DATA 13286
SCALARS field1 double 1
LOOKUP_TABLE default
 -1.741074974259e-11 
  2.491731797279e-12 
 -1.042119463361e-12 
 -9.375209416693e-13 
  5.064845927280e-13 
  1.651033207132e-13 
 -8.617774772186e-13 
 -7.519303421772e-13 
  7.678611874737e-14 
 -2.200455625822e-13 
 -2.940135536284e-12 
 -1.417221207747e-11 
 -7.177081954396e-11 
 -1.744682124980e-02 
 -1.850689807248e-02 
 -1.948772551096e-02 
 -2.038510351917e-02 
 -2.119518938443e-02 
 -2.191451419344e-02 
 -2.253999768823e-02 
 -2.306896145401e-02 
 -2.349914038595e-02 
 -2.382869238842e-02 
 -2.405620626562e-02 
 -2.418070776867e-02 
 -3.550403837920e-02 
 -3.757573277659e-02 
 -3.948652211288e-02 
 -4.122822410325e-02 
 -4.279338050533e-02 
 -4.417528907963e-02 
 -4.536803228644e-02 
 -4.636650261697e-02 
 -4.716642446296e-02 
 -4.776437243418e-02 
 -4.815778603970e-02 
 -5.411165860928e-02 
 -5.714336214075e-02 
 -5.993036901862e-02 
 -6.246074485785e-02 
 -6.472365419357e-02 
 -6.670940690432e-02 
 -6.840949969743e-02 
 -6.981665251109e-02 
 -7.092483969342e-02 
 -7.172931582488e-02 
 -7.320686544125e-02 
 -7.714406942103e-02 
 -8.075093064697e-02 
 -8.401200399290e-02 
 -8.691332503560e-02 
 -8.944246987715e-02 
 -9.158860833469e-02 
 -9.334255030877e-02 
 -9.469678514699e-02 
 -9.272427457444e-02 
 -9.750983054719e-02 
 -1.018778344509e-01 
 -1.058095818310e-01 
 -1.092882363323e-01 
 -1.122989018255e-01 
 -1.148286861846e-01 
 -1.168667564855e-01 
 -1.125962010949e-01 
 -1.181705917085e-01 
 -1.232389577031e-01 
 -1.277795955654e-01 
 -1.317730615733e-01 
 -1.352022550984e-01 
 -1.380524918246e-01 
 -1.327529368007e-01 
 -1.390545558962e-01 
 -1.447607220300e-01 
 -1.498470005300e-01 
 -1.542916111571e-01 
 -1.580755214236e-01 
 -1.531230364823e-01 
 -1.600884771933e-01 
 -1.663683944551e-01 
 -1.719358967128e-01 
 -1.767671430616e-01 
 -1.736336119497e-01 
 -1.811979615711e-01 
 -1.879863936836e-01 
 -1.939698392154e-01 
 -1.942106325648e-01 
 -2.023077729259e-01 
 -2.095386003307e-01 
 -2.147792310123e-01 
 -2.233421430563e-01 
 -2.352640130096e-01 
 -2.352640129984e-01 
 -2.233421430576e-01 
 -2.095386003237e-01 
 -1.939698392175e-01 
 -1.767671430652e-01 
 -1.580755214189e-01 
 -1.380524918175e-01 
 -1.168667564870e-01 
 -9.469678515419e-02 
 -7.172931582264e-02 
 -4.815778602963e-02 
 -2.418070777972e-02 
 -2.204392353053e-11 
 -2.494092979194e-01 
 -2.369378578869e-01 
 -2.226164949658e-01 
 -2.065660126016e-01 
 -1.889217399249e-01 
 -1.698323950236e-01 
 -1.494588355558e-01 
 -1.279727074126e-01 
 -1.055550028053e-01 
 -8.239453983193e-02 
 -5.868637624614e-02 
 -3.463017082864e-02 
 -2.633225111409e-01 
 -2.503098727213e-01 
 -2.354803347419e-01 
 -2.189589665270e-01 
 -2.008850498487e-01 
 -1.814109089521e-01 
 -1.607006308875e-01 
 -1.389286870596e-01 
 -1.162784675742e-01 
 -9.294074064253e-02 
 -6.911204996902e-02 
 -2.769313851547e-01 
 -2.633862939461e-01 
 -2.480585772041e-01 
 -2.310774840415e-01 
 -2.125861529877e-01 
 -1.927404095887e-01 
 -1.717074573395e-01 
 -1.496644730619e-01 
 -1.267971185146e-01 
 -1.032979806975e-01 
 -2.901643925907e-01 
 -2.760959629758e-01 
 -2.602804089593e-01 
 -2.428510704722e-01 
 -2.239548442655e-01 
 -2.037509499231e-01 
 -1.824095922932e-01 
 -1.601105316537e-01 
 -1.370415736053e-01 
 -3.029510634404e-01 
 -2.883687732118e-01 
 -2.720760623817e-01 
 -2.542102699132e-01 
 -2.349219496597e-01 
 -2.143736056463e-01 
 -1.927383269143e-01 
 -1.701983334518e-01 
 -3.152222981070e-01 
 -3.001359828302e-01 
 -2.833771281563e-01 
 -2.650869775437e-01 
 -2.454196383142e-01 
 -2.245407870748e-01 
 -2.026262779082e-01 
 -3.269106749274e-01 
 -3.113305220409e-01 
 -2.941168622945e-01 
 -2.754147464178e-01 
 -2.553817291208e-01 
 -2.341865455427e-01 
 -3.379507508368e-01 
 -3.218872934914e-01 
 -3.042304862928e-01 
 -2.851290873967e-01 
 -2.647439904413e-01 
 -3.482793538782e-01 
 -3.317434645148e-01 
 -3.136554791373e-01 
 -2.941677609240e-01 
 -3.578358662886e-01 
 -3.408387499544e-01 
 -3.223318598818e-01 
 -3.665624969224e-01 
 -3.491156843256e-01 
 -3.744045418036e-01 
  3.744045417953e-01 
  3.491156843316e-01 
  3.223318598876e-01 
  2.941677609268e-01 
  2.647439904410e-01 
  2.341865455404e-01 
  2.026262779060e-01 
  1.701983334518e-01 
  1.370415736077e-01 
  1.032979806998e-01 
  6.911204996756e-02 
  3.463017082354e-02 
  2.525234881424e-11 
  3.664187062173e-01 
  3.406889360683e-01 
  3.135002835914e-01 
  2.849691747604e-01 
  2.552177841639e-01 
  2.243735118361e-01 
  1.925684376945e-01 
  1.599387559467e-01 
  1.266241918898e-01 
  9.276740359461e-02 
  5.851337102756e-02 
  2.400877522996e-02 
  3.575049093113e-01 
  3.314038409258e-01 
  3.038836504125e-01 
  2.750621834505e-01 
  2.450628579886e-01 
  2.140141357513e-01 
  1.820489721357e-01 
  1.493042468732e-01 
  1.159201778961e-01 
  8.203972091332e-02 
  4.780795726258e-02 
  3.477217902178e-01 
  3.213219801496e-01 
  2.935462200321e-01 
  2.645134499396e-01 
  2.343479926465e-01 
  2.031790212725e-01 
  1.711400061374e-01 
  1.383681432181e-01 
  1.050037666581e-01 
  7.118974785004e-02 
  3.371313650477e-01 
  3.105080177120e-01 
  2.825550273799e-01 
  2.533920930514e-01 
  2.231440948755e-01 
  1.919405594219e-01 
  1.599151050235e-01 
  1.272048695934e-01 
  9.394992338229e-02 
  3.257987337725e-01 
  2.990293942606e-01 
  2.709795649801e-01 
  2.417693596081e-01 
  2.115238607102e-01 
  1.803725841569e-01 
  1.484489245084e-01 
  1.158895837846e-01 
  3.137917735735e-01 
  2.869560089163e-01 
  2.588914545740e-01 
  2.297182872814e-01 
  1.995614310001e-01 
  1.685500220234e-01 
  1.368168559856e-01 
  3.011808200720e-01 
  2.743598903814e-01 
  2.463641095113e-01 
  2.173133597073e-01 
  1.873320407179e-01 
  1.565485371598e-01 
  2.880383379031e-01 
  2.613148588494e-01 
  2.334723894395e-01 
  2.046301554266e-01 
  1.749116636547e-01 
  2.744385821259e-01 
  2.478961802489e-01 
  2.202922488531e-01 
  1.917449922467e-01 
  2.604572519999e-01 
  2.341802143802e-01 
  2.069003811014e-01 
  2.461711386892e-01 
  2.202440585458e-01 
  2.316577684943e-01 
  2.316577685076e-01 
  2.202440585447e-01 
  2.069003811100e-01 
  1.917449922446e-01 
  1.749116636507e-01 
  1.565485371651e-01 
  1.368168559940e-01 
  1.158895837833e-01 
  9.394992337401e-02 
  7.118974785154e-02 
  4.780795727249e-02 
  2.400877521667e-02 
  8.111014628150e-11 
  2.115474304265e-01 
  1.995553845251e-01 
  1.856664042288e-01 
  1.700034028367e-01 
  1.527044869851e-01 
  1.339217739678e-01 
  1.138200889404e-01 
  9.257555332695e-02 
  7.037407651986e-02 
  4.740976372841e-02 
  2.388325360134e-02 
  1.568525315441e-11 
  1.913558611277e-01 
  1.787927641812e-01 
  1.643671613472e-01 
  1.482065327531e-01 
  1.304532183596e-01 
  1.112631990066e-01 
  9.080476054019e-02 
  6.925705258662e-02 
  4.680855430509e-02 
  2.365546022040e-02 
  3.534617081387e-12 
  1.711535060474e-01 
  1.580270744393e-01 
  1.430739353800e-01 
  1.264260420377e-01 
  1.082298629758e-01 
  8.864512782485e-02 
  6.784345931229e-02 
  4.600690345879e-02 
  2.332637051757e-02 
  8.216325286920e-13 
  1.510102913265e-01 
  1.373286734529e-01 
  1.218574899849e-01 
  1.047330700544e-01 
  8.610590306798e-02 
  6.613934993169e-02 
  4.500824398714e-02 
  2.289739371133e-02 
  1.089525983855e-13 
  1.309953490590e-01 
  1.167671254569e-01 
  1.007877940429e-01 
  8.319795961576e-02 
  6.415202170705e-02 
  4.381685231015e-02 
  2.237036675173e-02 
  5.890480256927e-13 
  1.111767461688e-01 
  9.641092922725e-02 
  7.993374972203e-02 
  6.188998467531e-02 
  4.243783014792e-02 
  2.174754645000e-02 
  8.707021117891e-13 
  9.162121800825e-02 
  7.632725124122e-02 
  5.936292522056e-02 
  4.087708267779e-02 
  2.103159981540e-02 
  2.568051453017e-13 
  7.239390775092e-02 
  5.658166460826e-02 
  3.914129325900e-02 
  2.022559263887e-02 
 -8.093463071298e-14 
  5.355811262300e-02 
  3.723789481844e-02 
  1.933297636899e-02 
  8.159013876788e-13 
  3.517503799660e-02 
  1.835757333058e-02 
  6.778757754812e-13 
  1.730356034238e-02 
 -2.169912352882e-12 
  1.508288143340e-11 
  1.850359730905e-11 
 -3.382466798084e-12 
  5.620781739347e-13 
  1.850306062648e-12 
 -1.271203946463e-13 
 -1.264304079653e-12 
 -3.745734566069e-13 
  9.829133921987e-13 
  1.138624240899e-12 
  4.430756917172e-13 
  2.299446878168e-12 
  1.488218156566e-11 
  5.770278232422e-11 
  1.739637939412e-02 
  1.845244709472e-02 
  1.942949857255e-02 
  2.032334996074e-02 
  2.113017364258e-02 
  2.184651467015e-02 
  2.246930556409e-02 
  2.299587944428e-02 
  2.342398144432e-02 
  2.375177836445e-02 
  2.397786652032e-02 
  2.410127774726e-02 
  3.541517907631e-02 
  3.747798408466e-02 
  3.938030260625e-02 
  4.111398863451e-02 
  4.267161824287e-02 
  4.404652141892e-02 
  4.523281062638e-02 
  4.622540600293e-02 
  4.702005710418e-02 
  4.761336110673e-02 
  4.800277738531e-02 
  5.399586105920e-02 
  5.701290225819e-02 
  5.978580545902e-02 
  6.230269666630e-02 
  6.455279814748e-02 
  6.652647462629e-02 
  6.821527453225e-02 
  6.961196617215e-02 
  7.071056869177e-02 
  7.150637769838e-02 
  7.307500729685e-02 
  7.699086677535e-02 
  8.057703954569e-02 
  8.381816906239e-02 
  8.670037629710e-02 
  8.921131920547e-02 
  9.134024555971e-02 
  9.307803897056e-02 
  9.441725792499e-02 
  9.258658100039e-02 
  9.734318972892e-02 
  1.016829599757e-01 
  1.055873081772e-01 
  1.090395153047e-01 
  1.120247984888e-01 
  1.145303743008e-01 
  1.165455134721e-01 
  1.124621995111e-01 
  1.179991136035e-01 
  1.230307373733e-01 
  1.275355246403e-01 
  1.314941852051e-01 
  1.348897674857e-01 
  1.377077310836e-01 
  1.326314175634e-01 
  1.388861039119e-01 
  1.445460586337e-01 
  1.495870449481e-01 
  1.539874765678e-01 
  1.577285101725e-01 
  1.530220197209e-01 
  1.599301497631e-01 
  1.661534343378e-01 
  1.716652244115e-01 
  1.764419176343e-01 
  1.735603207383e-01 
  1.810560710822e-01 
  1.877765115175e-01 
  1.936928641223e-01 
  1.941714725719e-01 
  2.021878311756e-01 
  2.093383904314e-01 
  2.147797767287e-01 
  2.232488533017e-01 
  2.353090006169e-01 
  2.353090006086e-01 
  2.232488533038e-01 
  2.093383904248e-01 
  1.936928641230e-01 
  1.764419176372e-01 
  1.577285101694e-01 
  1.377077310781e-01 
  1.165455134726e-01 
  9.441725792974e-02 
  7.150637769573e-02 
  4.800277737620e-02 
  2.410127775520e-02 
  2.604611127355e-11 
  2.494099406583e-01 
  2.368179963150e-01 
  2.224066777467e-01 
  2.062953916149e-01 
  1.886176446205e-01 
  1.695199362722e-01 
  1.491605437164e-01 
  1.277082089071e-01 
  1.053407390262e-01 
  8.224353171197e-02 
  5.860803728803e-02 
  3.463017082767e-02 
  2.632835111656e-01 
  2.501681118396e-01 
  2.352654770329e-01 
  2.186990893486e-01 
  2.006062310787e-01 
  1.811368456140e-01 
  1.604522937180e-01 
  1.387240151326e-01 
  1.161321066228e-01 
  9.286382820492e-02 
  6.911204994635e-02 
  2.768582876625e-01 
  2.632281195738e-01 
  2.478440309948e-01 
  2.308334992085e-01 
  2.123374917417e-01 
  1.925092971800e-01 
  1.715132537076e-01 
  1.495233860271e-01 
  1.267219619607e-01 
  1.032979806694e-01 
  2.900635788883e-01 
  2.759276664589e-01 
  2.600723028512e-01 
  2.426288761327e-01 
  2.237419462839e-01 
  2.035680462008e-01 
  1.822743833354e-01 
  1.600374528226e-01 
  1.370415735874e-01 
  3.028297372874e-01 
  2.881974369686e-01 
  2.718812864206e-01 
  2.540164980238e-01 
  2.347511290704e-01 
  2.142448537491e-01 
  1.926676387382e-01 
  1.701983334479e-01 
  3.150884654122e-01 
  2.999694593014e-01 
  2.832033121177e-01 
  2.649289715663e-01 
  2.452978948095e-01 
  2.244727922436e-01 
  2.026262779119e-01 
  3.267731169049e-01 
  3.111774061535e-01 
  2.939723475328e-01 
  2.753005326283e-01 
  2.553167187931e-01 
  2.341865455446e-01 
  3.378189907628e-01 
  3.217568887774e-01 
  3.041242913014e-01 
  2.850673399572e-01 
  2.647439904361e-01 
  3.481636176241e-01 
  3.316457430677e-01 
  3.135972590044e-01 
  2.941677609138e-01 
  3.577470368445e-01 
  3.407843064425e-01 
  3.223318598745e-01 
  3.665120631661e-01 
  3.491156843282e-01 
  3.744045418141e-01 
 -3.744045418127e-01 
 -3.491156843271e-01 
 -3.223318598738e-01 
 -2.941677609135e-01 
 -2.647439904357e-01 
 -2.341865455441e-01 
 -2.026262779116e-01 
 -1.701983334477e-01 
 -1.370415735866e-01 
 -1.032979806669e-01 
 -6.911204994217e-02 
 -3.463017082440e-02 
 -2.814891581056e-11 
 -3.664609589941e-01 
 -3.407313769888e-01 
 -3.135427309213e-01 
 -2.850114467421e-01 
 -2.552596997889e-01 
 -2.244148916145e-01 
 -1.926091044239e-01 
 -1.599785354762e-01 
 -1.266629138751e-01 
 -9.280490223282e-02 
 -5.854948575981e-02 
 -2.404335139774e-02 
 -3.576248732322e-01 
 -3.315214718497e-01 
 -3.039984446263e-01 
 -2.751736493906e-01 
 -2.451705183426e-01 
 -2.141175294986e-01 
 -1.821476565234e-01 
 -1.493977993177e-01 
 -1.160081977976e-01 
 -8.212183136790e-02 
 -4.788380665301e-02 
 -3.479521473066e-01 
 -3.215446496706e-01 
 -2.937602484773e-01 
 -2.647179208031e-01 
 -2.345420303511e-01 
 -2.033617949182e-01 
 -1.713107330614e-01 
 -1.385260923476e-01 
 -1.051482616382e-01 
 -7.132016992241e-02 
 -3.375018015511e-01 
 -3.108624746263e-01 
 -2.828919868606e-01 
 -2.537101121798e-01 
 -2.234418118441e-01 
 -1.922166993660e-01 
 -1.601684854785e-01 
 -1.274344055527e-01 
 -9.415463192824e-02 
 -3.263357447799e-01 
 -2.995391132696e-01 
 -2.714598092898e-01 
 -2.422180727331e-01 
 -2.119391211963e-01 
 -1.807526138067e-01 
 -1.487920959867e-01 
 -1.161944275704e-01 
 -3.145184929257e-01 
 -2.876410424580e-01 
 -2.595318688827e-01 
 -2.303113400036e-01 
 -2.001045826033e-01 
 -1.690409466618e-01 
 -1.372534514404e-01 
 -3.021168766447e-01 
 -2.752367475336e-01 
 -2.471780124069e-01 
 -2.180608230925e-01 
 -1.880098638502e-01 
 -1.571538174954e-01 
 -2.891997391803e-01 
 -2.623964120788e-01 
 -2.344694632494e-01 
 -2.055384801967e-01 
 -1.757273497947e-01 
 -2.758376258113e-01 
 -2.491916006062e-01 
 -2.214784987015e-01 
 -1.928169918710e-01 
 -2.621024662450e-01 
 -2.356949355751e-01 
 -2.082781229829e-01 
 -2.480672513482e-01 
 -2.219797701624e-01 
 -2.338057056485e-01 
 -2.338057056567e-01 
 -2.219797701603e-01 
 -2.082781229897e-01 
 -1.928169918706e-01 
 -1.757273497918e-01 
 -1.571538174984e-01 
 -1.372534514458e-01 
 -1.161944275699e-01 
 -9.415463192336e-02 
 -7.132016992453e-02 
 -4.788380666179e-02 
 -2.404335139054e-02 
 -5.721570394505e-11 
 -2.134379164197e-01 
 -2.010654555618e-01 
 -1.868488874253e-01 
 -1.709087514751e-01 
 -1.533800315100e-01 
 -1.344110245210e-01 
 -1.141620978525e-01 
 -9.280434523638e-02 
 -7.051815296538e-02 
 -4.749168816817e-02 
 -2.391932184483e-02 
 -1.611730682666e-11 
 -1.929917949683e-01 
 -1.800806673771e-01 
 -1.653582956397e-01 
 -1.489494486796e-01 
 -1.309930289650e-01 
 -1.116409085107e-01 
 -9.105665609051e-02 
 -6.941416644562e-02 
 -4.689620297229e-02 
 -2.369286606693e-02 
 -2.755538588399e-12 
 -1.725413142479e-01 
 -1.590997502090e-01 
 -1.438810414396e-01 
 -1.270141011536e-01 
 -1.086416556739e-01 
 -8.891904837552e-02 
 -6.801293781405e-02 
 -4.609990103946e-02 
 -2.336495379588e-02 
 -7.137150791706e-13 
 -1.521599152086e-01 
 -1.381965134976e-01 
 -1.224912794556e-01 
 -1.051771825909e-01 
 -8.640067565680e-02 
 -6.632046735475e-02 
 -4.510619226337e-02 
 -2.293698921018e-02 
 -1.404761801611e-12 
 -1.319202068598e-01 
 -1.174439312950e-01 
 -1.012623246540e-01 
 -8.351232197664e-02 
 -6.434400247897e-02 
 -4.391933185704e-02 
 -2.241080492183e-02 
 -1.066609295039e-12 
 -1.118936701863e-01 
 -9.691384589442e-02 
 -8.026635569691e-02 
 -6.209200669582e-02 
 -4.254440212831e-02 
 -2.178865412930e-02 
  4.515047775797e-13 
 -9.215036716871e-02 
 -7.667667655679e-02 
 -5.957412339112e-02 
 -4.098729072552e-02 
 -2.107320097119e-02 
  1.282382563734e-12 
 -7.275865612028e-02 
 -5.680113454585e-02 
 -3.925466544071e-02 
 -2.026750912383e-02 
  5.260497534807e-14 
 -5.378491452671e-02 
 -3.735394565900e-02 
 -1.937502868789e-02 
 -1.750667805119e-12 
 -3.529327054497e-02 
 -1.839958141051e-02 
 -2.608845618698e-13 
 -1.734534429123e-02 
  3.129186659295e-12 
 -1.896179342232e-11 
  2.011893785739e-11 
 -1.744682123481e-02 
 -3.550403836604e-02 
 -5.411165859911e-02 
 -7.320686543504e-02 
 -9.272427457136e-02 
 -1.125962010946e-01 
 -1.327529368035e-01 
 -1.531230364879e-01 
 -1.736336119573e-01 
 -1.942106325757e-01 
 -2.147792310295e-01 
 -2.352640130206e-01 
 -1.950754876630e-02 
 -3.668015093005e-02 
 -5.443771578055e-02 
 -7.271979733396e-02 
 -9.146319836120e-02 
 -1.106022291469e-01 
 -1.300689772221e-01 
 -1.497935869203e-01 
 -1.697045475727e-01 
 -1.897289891248e-01 
 -2.097929839246e-01 
 -2.298218533963e-01 
 -3.737398549091e-02 
 -5.423222440440e-02 
 -7.165097251088e-02 
 -8.956937160473e-02 
 -1.079238847130e-01 
 -1.266485575991e-01 
 -1.456752909407e-01 
 -1.649341220219e-01 
 -1.843535147452e-01 
 -2.038606567369e-01 
 -2.233817622847e-01 
 -5.347683559476e-02 
 -6.998475899617e-02 
 -8.702980280173e-02 
 -1.045507348252e-01 
 -1.224837165124e-01 
 -1.407625670987e-01 
 -1.593190381399e-01 
 -1.780830972456e-01 
 -1.969832198123e-01 
 -2.159466875190e-01 
 -6.770873449572e-02 
 -8.383485102148e-02 
 -1.004758383567e-01 
 -1.175701256389e-01 
 -1.350536078908e-01 
 -1.528599127434e-01 
 -1.709206772298e-01 
 -1.891658334678e-01 
 -2.075239020202e-01 
 -7.997831402087e-02 
 -9.569582462085e-02 
 -1.119071589990e-01 
 -1.285504398252e-01 
 -1.455613277028e-01 
 -1.628732903725e-01 
 -1.804178816806e-01 
 -1.981250291220e-01 
 -9.021095544238e-02 
 -1.054979452722e-01 
 -1.212589661651e-01 
 -1.374318633070e-01 
 -1.539520916129e-01 
 -1.707529873277e-01 
 -1.877660490842e-01 
 -9.834940286002e-02 
 -1.131889920622e-01 
 -1.284841136702e-01 
 -1.441723610478e-01 
 -1.601890087914e-01 
 -1.764672866467e-01 
 -1.043542318689e-01 
 -1.187346840027e-01 
 -1.335534913826e-01 
 -1.487480178231e-01 
 -1.642533795530e-01 
 -1.082041696466e-01 
 -1.221189568762e-01 
 -1.364562586382e-01 
 -1.511532280458e-01 
 -1.098962637906e-01 
 -1.233440882873e-01 
 -1.371999254209e-01 
 -1.094458984295e-01 
 -1.224306697959e-01 
 -1.068866573321e-01 
  2.192721159453e-11 
 -1.950754876973e-02 
 -3.737398549316e-02 
 -5.347683559266e-02 
 -6.770873449631e-02 
 -7.997831402662e-02 
 -9.021095544749e-02 
 -9.834940285968e-02 
 -1.043542318679e-01 
 -1.082041696540e-01 
 -1.098962638009e-01 
 -1.094458984247e-01 
 -1.068866573818e-01 
 -6.397038425514e-12 
 -1.809152526318e-02 
 -3.445683104777e-02 
 -4.898425254083e-02 
 -6.157788242334e-02 
 -7.215836231734e-02 
 -8.066353625284e-02 
 -8.704896073219e-02 
 -9.128826717484e-02 
 -9.337337373596e-02 
 -9.331454470384e-02 
 -9.114029689179e-02 
 -5.098031128856e-12 
 -1.659803107663e-02 
 -3.139212716128e-02 
 -4.428191139138e-02 
 -5.518334440503e-02 
 -6.402941743449e-02 
 -7.077070342070e-02 
 -7.537576158508e-02 
 -7.783139210050e-02 
 -7.814273871472e-02 
 -7.633323839056e-02 
 -1.136644517863e-12 
 -1.503346157596e-02 
 -2.819299736314e-02 
 -3.938994829774e-02 
 -4.855250283895e-02 
 -5.562628875760e-02 
 -6.057481956034e-02 
 -6.337979184105e-02 
 -6.404123106097e-02 
 -6.257748447022e-02 
 -5.795267584783e-13 
 -1.340451648630e-02 
 -2.487314082481e-02 
 -3.432931140633e-02 
 -4.171375200890e-02 
 -4.698495977052e-02 
 -5.011954501895e-02 
 -5.111242010929e-02 
 -4.997683563008e-02 
 -1.122393270974e-12 
 -1.171817120010e-02 
 -2.144677368412e-02 
 -2.912167113925e-02 
 -3.469637648917e-02 
 -3.814243397152e-02 
 -3.944965090353e-02 
 -3.862617714611e-02 
 -4.894200116115e-13 
 -9.981646905538e-03 
 -1.792856816605e-02 
 -2.378932740107e-02 
 -2.753042575226e-02 
 -2.913657641836e-02 
 -2.861082732060e-02 
  6.509868908788e-13 
 -8.202379664621e-03 
 -1.433358976025e-02 
 -1.835511410109e-02 
 -2.024658550263e-02 
 -2.000595156122e-02 
  4.777863013152e-13 
 -6.387988572835e-03 
 -1.067723271785e-02 
 -1.284230138451e-02 
 -1.287604626042e-02 
 -4.043710602967e-13 
 -4.546243133968e-03 
 -6.975154132274e-03 
 -7.274495967938e-03 
  1.342092915916e-12 
 -2.685029986142e-03 