# vtk DataFile Version 2
NuDG++ 2D simulation
ASCII
DATASET UNSTRUCTURED_GRID

POINTS 7854 double
 -1.656250060000e-01  -2.000000030000e-01  0.0
 -1.725000054000e-01  -1.908888817000e-01  0.0
 -1.793750048000e-01  -1.817777604000e-01  0.0
 -1.862500042000e-01  -1.726666391000e-01  0.0
 -1.931250036000e-01  -1.635555178000e-01  0.0
 -2.000000030000e-01  -1.544443965000e-01  0.0
 -1.725000054000e-01  -2.000000030000e-01  0.0
 -1.793750048000e-01  -1.908888817000e-01  0.0
 -1.862500042000e-01  -1.817777604000e-01  0.0
 -1.931250036000e-01  -1.726666391000e-01  0.0
 -2.000000030000e-01  -1.635555178000e-01  0.0
 -1.793750048000e-01  -2.000000030000e-01  0.0
 -1.862500042000e-01  -1.908888817000e-01  0.0
 -1.931250036000e-01  -1.817777604000e-01  0.0
 -2.000000030000e-01  -1.726666391000e-01  0.0
 -1.862500042000e-01  -2.000000030000e-01  0.0
 -1.931250036000e-01  -1.908888817000e-01  0.0
 -2.000000030000e-01  -1.817777604000e-01  0.0
 -1.931250036000e-01  -2.000000030000e-01  0.0
 -2.000000030000e-01  -1.908888817000e-01  0.0
 -2.000000030000e-01  -2.000000030000e-01  0.0
 -6.428571790000e-02  -1.700000018000e-01  0.0
 -7.080357372400e-02  -1.760000020400e-01  0.0
 -7.732142954800e-02  -1.820000022800e-01  0.0
 -8.383928537200e-02  -1.880000025200e-01  0.0
 -9.035714119600e-02  -1.940000027600e-01  0.0
 -9.687499702000e-02  -2.000000030000e-01  0.0
 -6.392857432000e-02  -1.760000020400e-01  0.0
 -7.044643014400e-02  -1.820000022800e-01  0.0
 -7.696428596800e-02  -1.880000025200e-01  0.0
 -8.348214179200e-02  -1.940000027600e-01  0.0
 -8.999999761600e-02  -2.000000030000e-01  0.0
 -6.357143074000e-02  -1.820000022800e-01  0.0
 -7.008928656400e-02  -1.880000025200e-01  0.0
 -7.660714238800e-02  -1.940000027600e-01  0.0
 -8.312499821200e-02  -2.000000030000e-01  0.0
 -6.321428716000e-02  -1.880000025200e-01  0.0
 -6.973214298400e-02  -1.940000027600e-01  0.0
 -7.624999880800e-02  -2.000000030000e-01  0.0
 -6.285714358000e-02  -1.940000027600e-01  0.0
 -6.937499940400e-02  -2.000000030000e-01  0.0
 -6.250000000000e-02  -2.000000030000e-01  0.0
 -2.000000030000e-01  -1.544443965000e-01  0.0
 -1.900000036000e-01  -1.478412374800e-01  0.0
 -1.800000042000e-01  -1.412380784600e-01  0.0
 -1.700000048000e-01  -1.346349194400e-01  0.0
 -1.600000054000e-01  -1.280317604200e-01  0.0
 -1.500000060000e-01  -1.214286014000e-01  0.0
 -2.000000030000e-01  -1.453332975600e-01  0.0
 -1.900000036000e-01  -1.387301385400e-01  0.0
 -1.800000042000e-01  -1.321269795200e-01  0.0
 -1.700000048000e-01  -1.255238205000e-01  0.0
 -1.600000054000e-01  -1.189206614800e-01  0.0
 -2.000000030000e-01  -1.362221986200e-01  0.0
 -1.900000036000e-01  -1.296190396000e-01  0.0
 -1.800000042000e-01  -1.230158805800e-01  0.0
 -1.700000048000e-01  -1.164127215600e-01  0.0
 -2.000000030000e-01  -1.271110996800e-01  0.0
 -1.900000036000e-01  -1.205079406600e-01  0.0
 -1.800000042000e-01  -1.139047816400e-01  0.0
 -2.000000030000e-01  -1.180000007400e-01  0.0
 -1.900000036000e-01  -1.113968417200e-01  0.0
 -2.000000030000e-01  -1.088889018000e-01  0.0
 -1.500000060000e-01  -1.214286014000e-01  0.0
 -1.600000054000e-01  -1.280317604200e-01  0.0
 -1.700000048000e-01  -1.346349194400e-01  0.0
 -1.800000042000e-01  -1.412380784600e-01  0.0
 -1.900000036000e-01  -1.478412374800e-01  0.0
 -2.000000030000e-01  -1.544443965000e-01  0.0
 -1.500000060000e-01  -1.311428814800e-01  0.0
 -1.600000054000e-01  -1.377460405000e-01  0.0
 -1.700000048000e-01  -1.443491995200e-01  0.0
 -1.800000042000e-01  -1.509523585400e-01  0.0
 -1.900000036000e-01  -1.575555175600e-01  0.0
 -1.500000060000e-01  -1.408571615600e-01  0.0
 -1.600000054000e-01  -1.474603205800e-01  0.0
 -1.700000048000e-01  -1.540634796000e-01  0.0
 -1.800000042000e-01  -1.606666386200e-01  0.0
 -1.500000060000e-01  -1.505714416400e-01  0.0
 -1.600000054000e-01  -1.571746006600e-01  0.0
 -1.700000048000e-01  -1.637777596800e-01  0.0
 -1.500000060000e-01  -1.602857217200e-01  0.0
 -1.600000054000e-01  -1.668888807400e-01  0.0
 -1.500000060000e-01  -1.700000018000e-01  0.0
 -1.500000060000e-01  -7.285714149000e-02  0.0
 -1.600000054000e-01  -8.006349355200e-02  0.0
 -1.700000048000e-01  -8.726984561400e-02  0.0
 -1.800000042000e-01  -9.447619767600e-02  0.0
 -1.900000036000e-01  -1.016825497380e-01  0.0
 -2.000000030000e-01  -1.088889018000e-01  0.0
 -1.500000060000e-01  -8.257143347200e-02  0.0
 -1.600000054000e-01  -8.977778553400e-02  0.0
 -1.700000048000e-01  -9.698413759600e-02  0.0
 -1.800000042000e-01  -1.041904896580e-01  0.0
 -1.900000036000e-01  -1.113968417200e-01  0.0
 -1.500000060000e-01  -9.228572545400e-02  0.0
 -1.600000054000e-01  -9.949207751600e-02  0.0
 -1.700000048000e-01  -1.066984295780e-01  0.0
 -1.800000042000e-01  -1.139047816400e-01  0.0
 -1.500000060000e-01  -1.020000174360e-01  0.0
 -1.600000054000e-01  -1.092063694980e-01  0.0
 -1.700000048000e-01  -1.164127215600e-01  0.0
 -1.500000060000e-01  -1.117143094180e-01  0.0
 -1.600000054000e-01  -1.189206614800e-01  0.0
 -1.500000060000e-01  -1.214286014000e-01  0.0
  1.832975030000e+00  -4.625000060000e-02  0.0
  1.841380024000e+00  -7.700000108000e-02  0.0
  1.849785018000e+00  -1.077500015600e-01  0.0
  1.858190012000e+00  -1.385000020400e-01  0.0
  1.866595006000e+00  -1.692500025200e-01  0.0
  1.875000000000e+00  -2.000000030000e-01  0.0
  1.866380024000e+00  -5.649999976400e-02  0.0
  1.874785018000e+00  -8.725000024400e-02  0.0
  1.883190012000e+00  -1.180000007240e-01  0.0
  1.891595006000e+00  -1.487500012040e-01  0.0
  1.900000000000e+00  -1.795000016840e-01  0.0
  1.899785018000e+00  -6.674999892800e-02  0.0
  1.908190012000e+00  -9.749999940800e-02  0.0
  1.916595006000e+00  -1.282499998880e-01  0.0
  1.925000000000e+00  -1.590000003680e-01  0.0
  1.933190012000e+00  -7.699999809200e-02  0.0
  1.941595006000e+00  -1.077499985720e-01  0.0
  1.950000000000e+00  -1.384999990520e-01  0.0
  1.966595006000e+00  -8.724999725600e-02  0.0
  1.975000000000e+00  -1.179999977360e-01  0.0
  2.000000000000e+00  -9.749999642000e-02  0.0
 -1.500000060000e-01  -1.700000018000e-01  0.0
 -1.444000050800e-01  -1.630000025200e-01  0.0
 -1.388000041600e-01  -1.560000032400e-01  0.0
 -1.332000032400e-01  -1.490000039600e-01  0.0
 -1.276000023200e-01  -1.420000046800e-01  0.0
 -1.220000014000e-01  -1.350000054000e-01  0.0
 -1.500000060000e-01  -1.602857217200e-01  0.0
 -1.444000050800e-01  -1.532857224400e-01  0.0
 -1.388000041600e-01  -1.462857231600e-01  0.0
 -1.332000032400e-01  -1.392857238800e-01  0.0
 -1.276000023200e-01  -1.322857246000e-01  0.0
 -1.500000060000e-01  -1.505714416400e-01  0.0
 -1.444000050800e-01  -1.435714423600e-01  0.0
 -1.388000041600e-01  -1.365714430800e-01  0.0
 -1.332000032400e-01  -1.295714438000e-01  0.0
 -1.500000060000e-01  -1.408571615600e-01  0.0
 -1.444000050800e-01  -1.338571622800e-01  0.0
 -1.388000041600e-01  -1.268571630000e-01  0.0
 -1.500000060000e-01  -1.311428814800e-01  0.0
 -1.444000050800e-01  -1.241428822000e-01  0.0
 -1.500000060000e-01  -1.214286014000e-01  0.0
  2.849999964000e-01  -2.333333530000e-02  0.0
  2.844999968800e-01  -4.666666836000e-02  0.0
  2.839999973600e-01  -7.000000142000e-02  0.0
  2.834999978400e-01  -9.333333448000e-02  0.0
  2.829999983200e-01  -1.166666675400e-01  0.0
  2.824999988000e-01  -1.400000006000e-01  0.0
  2.979999959200e-01  -3.266666830000e-02  0.0
  2.974999964000e-01  -5.600000136000e-02  0.0
  2.969999968800e-01  -7.933333442000e-02  0.0
  2.964999973600e-01  -1.026666674800e-01  0.0
  2.959999978400e-01  -1.260000005400e-01  0.0
  3.109999954400e-01  -4.200000130000e-02  0.0
  3.104999959200e-01  -6.533333436000e-02  0.0
  3.099999964000e-01  -8.866666742000e-02  0.0
  3.094999968800e-01  -1.120000004800e-01  0.0
  3.239999949600e-01  -5.133333430000e-02  0.0
  3.234999954400e-01  -7.466666736000e-02  0.0
  3.229999959200e-01  -9.800000042000e-02  0.0
  3.369999944800e-01  -6.066666730000e-02  0.0
  3.364999949600e-01  -8.400000036000e-02  0.0
  3.499999940000e-01  -7.000000030000e-02  0.0
 -1.071429029000e-01  -1.700000018000e-01  0.0
 -9.857146590000e-02  -1.700000018000e-01  0.0
 -9.000002890000e-02  -1.700000018000e-01  0.0
 -8.142859190000e-02  -1.700000018000e-01  0.0
 -7.285715490000e-02  -1.700000018000e-01  0.0
 -6.428571790000e-02  -1.700000018000e-01  0.0
 -1.037143230360e-01  -1.630000025200e-01  0.0
 -9.514288603600e-02  -1.630000025200e-01  0.0
 -8.657144903600e-02  -1.630000025200e-01  0.0
 -7.800001203600e-02  -1.630000025200e-01  0.0
 -6.942857503600e-02  -1.630000025200e-01  0.0
 -1.002857431720e-01  -1.560000032400e-01  0.0
 -9.171430617200e-02  -1.560000032400e-01  0.0
 -8.314286917200e-02  -1.560000032400e-01  0.0
 -7.457143217200e-02  -1.560000032400e-01  0.0
 -9.685716330800e-02  -1.490000039600e-01  0.0
 -8.828572630800e-02  -1.490000039600e-01  0.0
 -7.971428930800e-02  -1.490000039600e-01  0.0
 -9.342858344400e-02  -1.420000046800e-01  0.0
 -8.485714644400e-02  -1.420000046800e-01  0.0
 -9.000000358000e-02  -1.350000054000e-01  0.0
 -1.312499940000e-01  -2.000000030000e-01  0.0
 -1.264285757800e-01  -1.940000027600e-01  0.0
 -1.216071575600e-01  -1.880000025200e-01  0.0
 -1.167857393400e-01  -1.820000022800e-01  0.0
 -1.119643211200e-01  -1.760000020400e-01  0.0
 -1.071429029000e-01  -1.700000018000e-01  0.0
 -1.349999964000e-01  -1.940000027600e-01  0.0
 -1.301785781800e-01  -1.880000025200e-01  0.0
 -1.253571599600e-01  -1.820000022800e-01  0.0
 -1.205357417400e-01  -1.760000020400e-01  0.0
 -1.157143235200e-01  -1.700000018000e-01  0.0
 -1.387499988000e-01  -1.880000025200e-01  0.0
 -1.339285805800e-01  -1.820000022800e-01  0.0
 -1.291071623600e-01  -1.760000020400e-01  0.0
 -1.242857441400e-01  -1.700000018000e-01  0.0
 -1.425000012000e-01  -1.820000022800e-01  0.0
 -1.376785829800e-01  -1.760000020400e-01  0.0
 -1.328571647600e-01  -1.700000018000e-01  0.0
 -1.462500036000e-01  -1.760000020400e-01  0.0
 -1.414285853800e-01  -1.700000018000e-01  0.0
 -1.500000060000e-01  -1.700000018000e-01  0.0
[...]
POINT_DATA 7854
SCALARS field1 double 1
LOOKUP_TABLE default
 -7.175041276918e-07 
  1.167125232118e-02 
  1.337373338777e-02 
  1.358362539104e-02 
  1.494940262568e-02 
  1.754292863428e-02 
 -3.941563839702e-06 
  9.672268951822e-03 
  1.096028312118e-02 
  1.184633507051e-02 
  1.437809861439e-02 
  1.527758997010e-06 
  7.320009681283e-03 
  8.710382308540e-03 
  1.105252836402e-02 
  1.086648156880e-05 
  5.017515512851e-03 
  7.547407800916e-03 
 -2.591897412196e-06 
  3.854455145732e-03 
  3.328972741581e-06 
  3.363869232797e-02 
  3.265694448717e-02 
  3.085515732037e-02 
  2.683937038106e-02 
  1.791098719598e-02 
 -9.279764188830e-07 
  3.323076265598e-02 
  3.143861149990e-02 
  2.739598643868e-02 
  1.831289992000e-02 
 -3.071910942829e-07 
  3.198433171876e-02 
  2.791474456175e-02 
  1.869271388149e-02 
 -3.553417580660e-07 
  2.839924894134e-02 
  1.904791845596e-02 
 -3.452972047230e-07 
  1.937719740698e-02 
 -2.234653230230e-07 
 -4.733928585940e-07 
  1.754062909493e-02 
  2.026588171795e-02 
  2.309177634667e-02 
  2.545083605138e-02 
  2.732938562069e-02 
  2.885684285036e-02 
  2.052030591230e-02 
  2.290357023795e-02 
  2.525238301532e-02 
  2.719760864694e-02 
  2.875331428486e-02 
  2.332773560206e-02 
  2.540462161665e-02 
  2.731331807574e-02 
  2.887313313631e-02 
  2.595770329053e-02 
  2.775166589739e-02 
  2.926326955747e-02 
  2.841307821481e-02 
  2.994534033303e-02 
  3.069352903516e-02 
  2.885700856556e-02 
  2.732935164310e-02 
  2.545061438093e-02 
  2.309163866958e-02 
  2.026631829125e-02 
  1.754203884433e-02 
  2.761963251583e-02 
  2.579916909521e-02 
  2.354758481276e-02 
  2.070764940781e-02 
  1.734976140812e-02 
  2.638255945222e-02 
  2.427984914971e-02 
  2.164270011210e-02 
  1.831069595342e-02 
  2.519339996863e-02 
  2.281656565133e-02 
  1.980524077644e-02 
  2.410274892687e-02 
  2.146840743131e-02 
  2.311238183075e-02 
  3.365806470204e-02 
  3.369081170315e-02 
  3.349146808983e-02 
  3.298646674652e-02 
  3.209402819659e-02 
  3.069488781532e-02 
  3.291142333249e-02 
  3.264134514143e-02 
  3.209100081473e-02 
  3.120468460055e-02 
  2.994474150724e-02 
  3.206202333125e-02 
  3.147434859471e-02 
  3.055086217996e-02 
  2.926294487666e-02 
  3.110862212481e-02 
  3.018095835362e-02 
  2.887280665864e-02 
  3.003774044000e-02 
  2.875330909422e-02 
  2.885640408906e-02 
  3.426075354857e-02 
  2.898684140851e-02 
  2.970161528394e-02 
  2.917822981089e-02 
  3.213504859079e-02 
  6.465302460444e-04 
  3.039718455260e-02 
  3.064809878152e-02 
  2.981210575422e-02 
  2.962776595765e-02 
  2.886133961490e-02 
  3.035382336213e-02 
  3.056491148070e-02 
  2.958343828475e-02 
  3.002727732131e-02 
  3.019251328188e-02 
  3.012148995641e-02 
  2.930236436322e-02 
  3.068873982566e-02 
  2.901910488621e-02 
  3.148323018622e-02 
  2.311217412483e-02 
  2.474187450253e-02 
  2.617945506130e-02 
  2.745825420931e-02 
  2.860498103072e-02 
  2.962623057983e-02 
  2.410209867171e-02 
  2.566137489682e-02 
  2.704213708708e-02 
  2.826363930881e-02 
  2.933679600027e-02 
  2.519369552507e-02 
  2.668001812967e-02 
  2.797660196130e-02 
  2.910485894674e-02 
  2.638291560403e-02 
  2.775641142161e-02 
  2.893904377140e-02 
  2.761929606356e-02 
  2.885027500707e-02 
  2.885716310359e-02 
  3.082020851838e-02 
  3.012436447578e-02 
  3.044701503126e-02 
  3.056838557016e-02 
  3.052440449143e-02 
  3.199308410034e-02 
  3.034592085522e-02 
  3.028733062655e-02 
  3.049586206057e-02 
  3.050241843722e-02 
  3.065384633986e-02 
  3.034198496902e-02 
  3.044267466788e-02 
  3.050236435741e-02 
  3.048714892017e-02 
  3.052304081103e-02 
  3.050573884198e-02 
  3.046873811892e-02 
  3.049894899416e-02 
  3.060295378535e-02 
  3.010149628484e-02 
  2.941898295776e-02 
  3.038884238200e-02 
  3.128748467682e-02 
  3.212915991939e-02 
  3.291351855391e-02 
  3.364178126467e-02 
  3.009858687524e-02 
  3.101161828062e-02 
  3.187268968935e-02 
  3.268425777095e-02 
  3.344630753635e-02 
  3.071327413257e-02 
  3.157876165372e-02 
  3.240557609777e-02 
  3.319671933225e-02 
  3.131607992232e-02 
  3.214151496076e-02 
  3.294590874801e-02 
  3.190381331801e-02 
  3.270256060111e-02 
  3.247914497403e-02 
 -1.642347306875e-06 
  1.525811275107e-02 
  2.302947847972e-02 
  2.666042143428e-02 
  2.839900752763e-02 
  2.941920772182e-02 
  1.444064415757e-02 
  2.191559406476e-02 
  2.550202016484e-02 
  2.728354858992e-02 
  2.838694695629e-02 
  2.066104862813e-02 
  2.421169982372e-02 
  2.606033735528e-02 
  2.725577427544e-02 
  2.275763924278e-02 
  2.470046936735e-02 
  2.601574139348e-02 
  2.317284015296e-02 
  2.464418366383e-02 
  2.311066307930e-02 
  2.962669207713e-02 
  3.019120570629e-02 
  3.075534433210e-02 
  3.132393613058e-02 
  3.189638931468e-02 
  3.247864092859e-02 
  3.019485360660e-02 
  3.069418713625e-02 
  3.120675727482e-02 
  3.173504660642e-02 
  3.227963399653e-02 
  3.071467066543e-02 
  3.115427573322e-02 
  3.161857981061e-02 
  3.211101967015e-02 
  3.117813162128e-02 
  3.155985830525e-02 
  3.197939590267e-02 
  3.157241263753e-02 
  3.189823610832e-02 
  3.187729821547e-02 
  3.247845787027e-02 
  3.189650735510e-02 
  3.132393331567e-02 
  3.075534609295e-02 
  3.019125639408e-02 
  2.962683418475e-02 
  3.190404612784e-02 
  3.130382224744e-02 
  3.069745930602e-02 
  3.008397411918e-02 
  2.945880821593e-02 
  3.131582010974e-02 
  3.068242000402e-02 
  3.003268935010e-02 
  2.936435111261e-02 
  3.071335158223e-02 
  3.004039747381e-02 
  2.934045918040e-02 
  3.009859218083e-02 
  2.937854674545e-02 
  2.941961139276e-02 
  3.434763495751e-02 
  3.365700636573e-02 
  3.309488141820e-02 
  3.262778125692e-02 
  3.223097813731e-02 
  3.187742311551e-02 
  3.417142506284e-02 
  3.348875613275e-02 
  3.289723881820e-02 
  3.237313757974e-02 
  3.189815952625e-02 
  3.386168266475e-02 
  3.317990563261e-02 
  3.255810891141e-02 
  3.197941921928e-02 
  3.345707619873e-02 
  3.276758857615e-02 
  3.211104463052e-02 
  3.298749624531e-02 
  3.227956647163e-02 
  3.247914402327e-02 
  2.962662762820e-02 
  3.019492987114e-02 
  3.071464052541e-02 
  3.117817839878e-02 
  3.157257765103e-02 
  3.187694523553e-02 
  2.933683286616e-02 
  2.996228078589e-02 
  3.052986851619e-02 
  3.103214469426e-02 
  3.145690572783e-02 
  2.910482492502e-02 
  2.979166339664e-02 
  3.041469686483e-02 
  3.096293623231e-02 
  2.893872902688e-02 
  2.969517416697e-02 
  3.038034652771e-02 
  2.885025466918e-02 
  2.968495123531e-02 
  2.885689187731e-02 
  3.434726362953e-02 
  3.417142010421e-02 
  3.386163120077e-02 
  3.345710359753e-02 
  3.298733846951e-02 
  3.248000097992e-02 
  3.491048848378e-02 
  3.461246688125e-02 
  3.421829646799e-02 
  3.376251593403e-02 
  3.326640353905e-02 
  3.545335445536e-02 
  3.503737073504e-02 
  3.456565921188e-02 
  3.406493030923e-02 
  3.595374109743e-02 
  3.543204753367e-02 
  3.489406288704e-02 
  3.639953425846e-02 
  3.578670724136e-02 
  3.677589947150e-02 
  2.941959064148e-02 
  2.937881441869e-02 
  2.934069364810e-02 
  2.936443887621e-02 
  2.945859220895e-02 
  2.962679668776e-02 
  2.838719608042e-02 
  2.835629390202e-02 
  2.835347739851e-02 
  2.843445503181e-02 
  2.860503307155e-02 
  2.725589232606e-02 
  2.725425133586e-02 
  2.730317817022e-02 
  2.745843742948e-02 
  2.601601802399e-02 
  2.605577107442e-02 
  2.617898281240e-02 
  2.464420838596e-02 
  2.474181293410e-02 
  2.311154133862e-02 
 -2.743237840671e-07 
 -3.533065568913e-07 
 -2.790273725525e-07 
 -4.086565101719e-07 
 -3.354403984711e-07 
 -1.175862960291e-06 
  2.115391674573e-02 
  2.110652544163e-02 
  2.096032636354e-02 
  2.073341162733e-02 
  2.045298277268e-02 
  3.102812855117e-02 
  3.093747150237e-02 
  3.069730983453e-02 
  3.034365313669e-02 
  3.498100409686e-02 
  3.483542709578e-02 
  3.453260064833e-02 
  3.636495785821e-02 
  3.615733745574e-02 
  3.682195052019e-02 
  3.365633986831e-02 
  3.291060506726e-02 
  3.206177867131e-02 
  3.110883674647e-02 
  3.003768118917e-02 
  2.885675375354e-02 
  3.289793992616e-02 
  3.225372442720e-02 
  3.150882844799e-02 
  3.065220800383e-02 
  2.968493686426e-02 
  3.235986788108e-02 
  3.180892190042e-02 
  3.114627575689e-02 
  3.038039999655e-02 
  3.201943721351e-02 
  3.154648298877e-02 
  3.096300039054e-02 
  3.186700936251e-02 
  3.145694263357e-02 
  3.187655332315e-02 
  3.946522363812e-02 
  3.852660896081e-02 
  3.707807984814e-02 
  3.571660323948e-02 
  3.457449587441e-02 
  3.365805382134e-02 
  3.978359788460e-02 
  3.821007632058e-02 
  3.668291398300e-02 
  3.538005045190e-02 
  3.427041156372e-02 
  3.917049316477e-02 
  3.749201089461e-02 
  3.601663822436e-02 
  3.473839048050e-02 
  3.816159130443e-02 
  3.652822425365e-02 
  3.508061065707e-02 
  3.693711218566e-02 
  3.534438151327e-02 
  3.557580834244e-02 
  3.946332240963e-02 
  3.806009168934e-02 
  3.648145603946e-02 
  3.472835203574e-02 
  3.279911196942e-02 
  3.069377485606e-02 
  3.852711335314e-02 
  3.716855150904e-02 
  3.563860960687e-02 
  3.394993760601e-02 
  3.209383968423e-02 
  3.707781598635e-02 
  3.585575815561e-02 
  3.448930236769e-02 
  3.298594957162e-02 
  3.571696020273e-02 
  3.466962485676e-02 
  3.349225499047e-02 
  3.457369658976e-02 
  3.369038887768e-02 
  3.366056545129e-02 
  3.946373272990e-02 
  3.978352034264e-02 
  3.916974323601e-02 
  3.816194490301e-02 
  3.693663398382e-02 
  3.557821573304e-02 
  4.069158798658e-02 
  4.079389390639e-02 
  3.990583880939e-02 
  3.866252129409e-02 
  3.724839591218e-02 
  4.174348684877e-02 
  4.163702530182e-02 
  4.050936348921e-02 
  3.905458651256e-02 
  4.262006682152e-02 
  4.232322135553e-02 
  4.097975731072e-02 
  4.332249243027e-02 
  4.283858957770e-02 
  4.384739108481e-02 
  3.557349765174e-02 
  3.534348214854e-02 
  3.507987292410e-02 
  3.473841693760e-02 
  3.427033358295e-02 
  3.365546975351e-02 
  3.415367897398e-02 
  3.406785118718e-02 
  3.395193603852e-02 
  3.376566647225e-02 
  3.345852822612e-02 
  3.281976455826e-02 
  3.290020835013e-02 
  3.295611031766e-02 
  3.294340416421e-02 
  3.154542051408e-02 
  3.183246173548e-02 
  3.209845578234e-02 
  3.033210005473e-02 
  3.088050694935e-02 
  2.918607218917e-02 
  2.822076866267e-02 
  2.994225094591e-02 
  3.152099401818e-02 
  3.297617063050e-02 
  3.431765595919e-02 
  3.557253028976e-02 
  2.810820914346e-02 
  2.989249934087e-02 
  3.147303605659e-02 
  3.288561784172e-02 
  3.415372150419e-02 
  2.816256637388e-02 
  2.994934117779e-02 
  3.148436076869e-02 
  3.281951006966e-02 
  2.837483867176e-02 
  3.010118139276e-02 
  3.154572747866e-02 
  2.872553657641e-02 
  3.033200149819e-02 
  2.918711170979e-02 
  3.557540869717e-02 
  3.571314540378e-02 
  3.581092776739e-02 
  3.586069593376e-02 
  3.588384084166e-02 
  3.589904119037e-02 
  3.724902516678e-02 
  3.748503087739e-02 
  3.761805693958e-02 
  3.767503940125e-02 
  3.765467541091e-02 
  3.905398692240e-02 
  3.934049600352e-02 
  3.950767391319e-02 
  3.956041480049e-02 
  4.098063406691e-02 
  4.132027321409e-02 
  4.150315263367e-02 
  4.283812341087e-02 
  4.320814906922e-02 
  4.384945464815e-02 
  3.365400133383e-02 
  3.306050950533e-02 
  3.253784460875e-02 
  3.210236859816e-02 
  3.177440870636e-02 
  3.162168682672e-02 
  3.345883071471e-02 
  3.272939776400e-02 
  3.207181739754e-02 
  3.149449174001e-02 
  3.103531064624e-02 
  3.294310761750e-02 
  3.206647419182e-02 
  3.123681448551e-02 
  3.046682304179e-02 
  3.209852501297e-02 
  3.102463253176e-02 
  2.994646125307e-02 
  3.088038104370e-02 
  2.951182152667e-02 
  2.918726352031e-02 
  3.195996523430e-02 
  3.073836634647e-02 
  3.039871129461e-02 
  3.042752778614e-02 
  3.087752444942e-02 
  3.191773190224e-02 
  3.038577515816e-02 
  3.057542695423e-02 
  3.058903052521e-02 
  3.079814197301e-02 
  3.108971125532e-02 
  3.037783285595e-02 
  3.017458084436e-02 
  3.007702013944e-02 
  2.961048022384e-02 
  3.030624099314e-02 
  3.048994861869e-02 
  3.012580771940e-02 
  2.655660143709e-02 
  2.985690499168e-02 
  3.137226701457e-04 
  2.770766479912e-02 
  2.899466192879e-02 
  2.994450298969e-02 
  3.066628432093e-02 
  3.121093404482e-02 
  3.162484127589e-02 
  2.906629394242e-02 
  3.004398632774e-02 
  3.076195819345e-02 
  3.130087241504e-02 
  3.169384732901e-02 
  3.051875750639e-02 
  3.116725868003e-02 
  3.163421516838e-02 
  3.197593599905e-02 
  3.201797291926e-02 
  3.232806902263e-02 
  3.253451975005e-02 
  3.351247190703e-02 
  3.348829260416e-02 
  3.495301188125e-02 
  3.162135378558e-02 
  3.177445427904e-02 
  3.210228202273e-02 
  3.253797881415e-02 
  3.306044509302e-02 
  3.365446651132e-02 
  3.206763924559e-02 
  3.208502607869e-02 
  3.225862332788e-02 
  3.253867919984e-02 
  3.289799265225e-02 
  3.229051967605e-02 
  3.218965709366e-02 
  3.222754576771e-02 
  3.235933938324e-02 
  3.231659047380e-02 
  3.211172425506e-02 
  3.201963987745e-02 
  3.217490051120e-02 
  3.186682610467e-02 
  3.187719426543e-02 
  1.204125120038e-02 
  1.463563849337e-02 
  1.685643336630e-02 
  1.876323312512e-02 
  2.041723229871e-02 
  2.187839335871e-02 
  1.311649131320e-02 
  1.559577496903e-02 
  1.770243470572e-02 
  1.950171494220e-02 
  2.104822567343e-02 
  1.447578525632e-02 
  1.684387288514e-02 
  1.879221681950e-02 
  2.043952315327e-02 
  1.615341764952e-02 
  1.835215028185e-02 
  2.010141559272e-02 
  1.814106794221e-02 
  2.009329372355e-02 
  2.037625376592e-02 
  2.187653710680e-02 
  2.386727024510e-02 
  2.553006301387e-02 
  2.693134808160e-02 
  2.813646580349e-02 
  2.918950447849e-02 
  2.265376813288e-02 
  2.449104309362e-02 
  2.601262078641e-02 
  2.729958635762e-02 
  2.840424732302e-02 
  2.368078724137e-02 
  2.528952803836e-02 
  2.662962871793e-02 
  2.777138054805e-02 
  2.490617699456e-02 
  2.623800109660e-02 
  2.736066089625e-02 
  2.626736452914e-02 
  2.729746028412e-02 
  2.770891240707e-02 
  2.770620221753e-02 
  2.686638784362e-02 
  2.580857936244e-02 
  2.448756855124e-02 
  2.275048083582e-02 
  2.037675547627e-02 
  2.626663315929e-02 
  2.516764971369e-02 
  2.383757061869e-02 
  2.218972096989e-02 
  2.009332454076e-02 
  2.490607424399e-02 
  2.358991488504e-02 
  2.201352645815e-02 
  2.010128642325e-02 
  2.368046052392e-02 
  2.219753422523e-02 
  2.043933259611e-02 
  2.265314423336e-02 
  2.104836039963e-02 
  2.187817399667e-02 
  2.187619469682e-02 
  2.271965359327e-02 
  2.394157962666e-02 
  2.533801954812e-02 
  2.679052198804e-02 
  2.822168906122e-02 
  2.386748589308e-02 
  2.459437107099e-02 
  2.562883767955e-02 
  2.683365787531e-02 
  2.810811505727e-02 
  2.553022399702e-02 
  2.617685775814e-02 
  2.709147553626e-02 
  2.816237951436e-02 
  2.693112685785e-02 
  2.753870347855e-02 
  2.837488426043e-02 
  2.813666116193e-02 
  2.872579981684e-02 
  2.918811359363e-02 
  3.434731366994e-02 
  3.462369807774e-02 
  3.484437413959e-02 
  3.499830396573e-02 
  3.505789693864e-02 
  3.495367445583e-02 
  3.383997996106e-02 
  3.394970644126e-02 
  3.395330783620e-02 
  3.381603876076e-02 
  3.348818548933e-02 
  3.328819724485e-02 
  3.321410020022e-02 
  3.298077360038e-02 
  3.253470062656e-02 
  3.271658084988e-02 
  3.245085180580e-02 
  3.197578772804e-02 
  3.215029884998e-02 
  3.169393096034e-02 
  3.162432782693e-02 
  2.771003290313e-02 
  2.729719165207e-02 
  2.736093063275e-02 
  2.777124810706e-02 
  2.840439124589e-02 
  2.918891149802e-02 
  2.899437005609e-02 
  2.861872037325e-02 
  2.865113673210e-02 
  2.897574742653e-02 
  2.951242008175e-02 
  2.994483210461e-02 
  2.963970697337e-02 
  2.966570292611e-02 
  2.994709297788e-02 
  3.066616987481e-02 
  3.042788826681e-02 
  3.046745362633e-02 
  3.121114410224e-02 
  3.103566225685e-02 
  3.162325792546e-02 
  3.434799185107e-02 
  3.383972616165e-02 
  3.328798882473e-02 
  3.271615949246e-02 
  3.214998294651e-02 
  3.162242060569e-02 
  3.365697108540e-02 
  3.326216370009e-02 
  3.285275494573e-02 
  3.244715251119e-02 
  3.206750781313e-02 
  3.309500006429e-02 
  3.281392099762e-02 
  3.254122599289e-02 
  3.229071065889e-02 
  3.262769402183e-02 
  3.246008552318e-02 
  3.231661611267e-02 
  3.223110427216e-02 
  3.217525049293e-02 
  3.187701576556e-02 
  2.187720220919e-02 
  2.041759870323e-02 
  1.876310247332e-02 
  1.685613281157e-02 
  1.463570580086e-02 
  1.204191932832e-02 
  2.089531024808e-02 
  1.930718423513e-02 
  1.748996116493e-02 
  1.540196387139e-02 
  1.300637351874e-02 
  2.015564739510e-02 
  1.847584126747e-02 
  1.656425280857e-02 
  1.438340281094e-02 
  1.968474696802e-02 
  1.797354958515e-02 
  1.604401104271e-02 
  1.950219905566e-02 
  1.782258186018e-02 
  1.960003941414e-02 
  3.677649568142e-02 
  3.578663343088e-02 
  3.489425297245e-02 
  3.406479602756e-02 
  3.326650401742e-02 
  3.247960514052e-02 
  3.602516223441e-02 
  3.514148177966e-02 
  3.430831134819e-02 
  3.350160034758e-02 
  3.270287001618e-02 
  3.532833805074e-02 
  3.451802741563e-02 
  3.372868621961e-02 
  3.294592958450e-02 
  3.470410797345e-02 
  3.395257688401e-02 
  3.319700854131e-02 
  3.416987024449e-02 
  3.344646493065e-02 
  3.364383596475e-02 
  3.416458836651e-02 
  3.032645929674e-02 
  3.031142709640e-02 
  3.017933596277e-02 
  3.061864041993e-02 
  3.162716626334e-02 
  3.066067592735e-02 
  3.012181092618e-02 
  3.022744105042e-02 
  3.022098166268e-02 
  3.087461744862e-02 
  3.010543240032e-02 
  3.032673267798e-02 
  3.025064826047e-02 
  3.064015496396e-02 
  3.009542313426e-02 
  3.007230851469e-02 
  3.104583881241e-02 
  3.057311723222e-02 
  3.140600358663e-02 
  3.131640592019e-02 
  3.852878399639e-02 
  3.790459168593e-02 
  3.738044888200e-02 
  3.695433167905e-02 
  3.662151885326e-02 
  3.629384505723e-02 
  3.883347724587e-02 
  3.815840034395e-02 
  3.759821536507e-02 
  3.715244427886e-02 
  3.680313285001e-02 
  3.906517215434e-02 
  3.834693343935e-02 
  3.776259251561e-02 
  3.730168140629e-02 
  3.921487845691e-02 
  3.846845355102e-02 
  3.787105095265e-02 
  3.928307328143e-02 
  3.852350706838e-02 
  3.926837749839e-02 
  3.852829106189e-02 
  3.832053972747e-02 
  3.803804548199e-02 
  3.768181323500e-02 
  3.725681948618e-02 
  3.677553754794e-02 
  3.731986548841e-02 
  3.707184542483e-02 
  3.677037808933e-02 
  3.642006308372e-02 
  3.602521475064e-02 
  3.628048021453e-02 
  3.599738885448e-02 
  3.567885181456e-02 
  3.532814431472e-02 
  3.536116916577e-02 
  3.504703939264e-02 
  3.470417547422e-02 
  3.451410154760e-02 
  3.416962420048e-02 
  3.364468084720e-02 
  3.434678210667e-02 
  3.514851479304e-02 
  3.615754947886e-02 
  3.746698849722e-02 
  3.918572320516e-02 
  4.144649092507e-02 
  3.462354707089e-02 
  3.550828470163e-02 
  3.667582362522e-02 
  3.824879274110e-02 
  4.036081201923e-02 
  3.484407637016e-02 
  3.584553705822e-02 
  3.722769673836e-02 
  3.914357353229e-02 
  3.499814579887e-02 
  3.615344573967e-02 
  3.781361265257e-02 
  3.505795382626e-02 
  3.640360660103e-02 
  3.495262662217e-02 
  4.144658892133e-02 
  3.918579962162e-02 
  3.746705617662e-02 
  3.615761714826e-02 
  3.514857996617e-02 
  3.434674785574e-02 
  4.025045616230e-02 
  3.842583630515e-02 
  3.698667778687e-02 
  3.584216425847e-02 
  3.491014573333e-02 
  3.921406517733e-02 
  3.771025597046e-02 
  3.647777383403e-02 
  3.545293665354e-02 
  3.830665556144e-02 
  3.703627384998e-02 
  3.595321040993e-02 
  3.750148734583e-02 
  3.639889190812e-02 
  3.677472237178e-02 
  4.573423617463e-02 
  4.521610856187e-02 
  4.451707815866e-02 
  4.364341264918e-02 
  4.260899910239e-02 
  4.144859934857e-02 
  4.313236165418e-02 
  4.258506826617e-02 
  4.190886578515e-02 
  4.112232914643e-02 
  4.025027075764e-02 
  4.102916127600e-02 
  4.049852851256e-02 
  3.988860516537e-02 
  3.921437905000e-02 
  3.933227978436e-02 
  3.884385442806e-02 
  3.830641568463e-02 
  3.794570586846e-02 
  3.750148479641e-02 
  3.677355602893e-02 
  4.234107490699e-02 
  4.132911502696e-02 
  3.958817563265e-02 