# vtk DataFile Version 2
NuDG++ 2D simulation
ASCII
DATASET UNSTRUCTURED_GRID

POINTS 7854 double
 -1.656250060000e-01  -2.000000030000e-01  0.0
 -1.725000054000e-01  -1.908888817000e-01  0.0
 -1.793750048000e-01  -1.817777604000e-01  0.0
 -1.862500042000e-01  -1.726666391000e-01  0.0
 -1.931250036000e-01  -1.635555178000e-01  0.0
 -2.000000030000e-01  -1.544443965000e-01  0.0
 -1.725000054000e-01  -2.000000030000e-01  0.0
 -1.793750048000e-01  -1.908888817000e-01  0.0
 -1.862500042000e-01  -1.817777604000e-01  0.0
 -1.931250036000e-01  -1.726666391000e-01  0.0
 -2.000000030000e-01  -1.635555178000e-01  0.0
 -1.793750048000e-01  -2.000000030000e-01  0.0
 -1.862500042000e-01  -1.908888817000e-01  0.0
 -1.931250036000e-01  -1.817777604000e-01  0.0
 -2.000000030000e-01  -1.726666391000e-01  0.0
 -1.862500042000e-01  -2.000000030000e-01  0.0
 -1.931250036000e-01  -1.908888817000e-01  0.0
 -2.000000030000e-01  -1.817777604000e-01  0.0
 -1.931250036000e-01  -2.000000030000e-01  0.0
 -2.000000030000e-01  -1.908888817000e-01  0.0
 -2.000000030000e-01  -2.000000030000e-01  0.0
 -6.428571790000e-02  -1.700000018000e-01  0.0
 -7.080357372400e-02  -1.760000020400e-01  0.0
 -7.732142954800e-02  -1.820000022800e-01  0.0
 -8.383928537200e-02  -1.880000025200e-01  0.0
 -9.035714119600e-02  -1.940000027600e-01  0.0
 -9.687499702000e-02  -2.000000030000e-01  0.0
 -6.392857432000e-02  -1.760000020400e-01  0.0
 -7.044643014400e-02  -1.820000022800e-01  0.0
 -7.696428596800e-02  -1.880000025200e-01  0.0
 -8.348214179200e-02  -1.940000027600e-01  0.0
 -8.999999761600e-02  -2.000000030000e-01  0.0
 -6.357143074000e-02  -1.820000022800e-01  0.0
 -7.008928656400e-02  -1.880000025200e-01  0.0
 -7.660714238800e-02  -1.940000027600e-01  0.0
 -8.312499821200e-02  -2.000000030000e-01  0.0
 -6.321428716000e-02  -1.880000025200e-01  0.0
 -6.973214298400e-02  -1.940000027600e-01  0.0
 -7.624999880800e-02  -2.000000030000e-01  0.0
 -6.285714358000e-02  -1.940000027600e-01  0.0
 -6.937499940400e-02  -2.000000030000e-01  0.0
 -6.250000000000e-02  -2.000000030000e-01  0.0
 -2.000000030000e-01  -1.544443965000e-01  0.0
 -1.900000036000e-01  -1.478412374800e-01  0.0
 -1.800000042000e-01  -1.412380784600e-01  0.0
 -1.700000048000e-01  -1.346349194400e-01  0.0
 -1.600000054000e-01  -1.280317604200e-01  0.0
 -1.500000060000e-01  -1.214286014000e-01  0.0
 -2.000000030000e-01  -1.453332975600e-01  0.0
 -1.900000036000e-01  -1.387301385400e-01  0.0
 -1.800000042000e-01  -1.321269795200e-01  0.0
 -1.700000048000e-01  -1.255238205000e-01  0.0
 -1.600000054000e-01  -1.189206614800e-01  0.0
 -2.000000030000e-01  -1.362221986200e-01  0.0
 -1.900000036000e-01  -1.296190396000e-01  0.0
 -1.800000042000e-01  -1.230158805800e-01  0.0
 -1.700000048000e-01  -1.164127215600e-01  0.0
 -2.000000030000e-01  -1.271110996800e-01  0.0
 -1.900000036000e-01  -1.205079406600e-01  0.0
 -1.800000042000e-01  -1.139047816400e-01  0.0
 -2.000000030000e-01  -1.180000007400e-01  0.0
 -1.900000036000e-01  -1.113968417200e-01  0.0
 -2.000000030000e-01  -1.088889018000e-01  0.0
 -1.500000060000e-01  -1.214286014000e-01  0.0
 -1.600000054000e-01  -1.280317604200e-01  0.0
 -1.700000048000e-01  -1.346349194400e-01  0.0
 -1.800000042000e-01  -1.412380784600e-01  0.0
 -1.900000036000e-01  -1.478412374800e-01  0.0
 -2.000000030000e-01  -1.544443965000e-01  0.0
 -1.500000060000e-01  -1.311428814800e-01  0.0
 -1.600000054000e-01  -1.377460405000e-01  0.0
 -1.700000048000e-01  -1.443491995200e-01  0.0
 -1.800000042000e-01  -1.509523585400e-01  0.0
 -1.900000036000e-01  -1.575555175600e-01  0.0
 -1.500000060000e-01  -1.408571615600e-01  0.0
 -1.600000054000e-01  -1.474603205800e-01  0.0
 -1.700000048000e-01  -1.540634796000e-01  0.0
 -1.800000042000e-01  -1.606666386200e-01  0.0
 -1.500000060000e-01  -1.505714416400e-01  0.0
 -1.600000054000e-01  -1.571746006600e-01  0.0
 -1.700000048000e-01  -1.637777596800e-01  0.0
 -1.500000060000e-01  -1.602857217200e-01  0.0
 -1.600000054000e-01  -1.668888807400e-01  0.0
 -1.500000060000e-01  -1.700000018000e-01  0.0
 -1.500000060000e-01  -7.285714149000e-02  0.0
 -1.600000054000e-01  -8.006349355200e-02  0.0
 -1.700000048000e-01  -8.726984561400e-02  0.0
 -1.800000042000e-01  -9.447619767600e-02  0.0
 -1.900000036000e-01  -1.016825497380e-01  0.0
 -2.000000030000e-01  -1.088889018000e-01  0.0
 -1.500000060000e-01  -8.257143347200e-02  0.0
 -1.600000054000e-01  -8.977778553400e-02  0.0
 -1.700000048000e-01  -9.698413759600e-02  0.0
 -1.800000042000e-01  -1.041904896580e-01  0.0
 -1.900000036000e-01  -1.113968417200e-01  0.0
 -1.500000060000e-01  -9.228572545400e-02  0.0
 -1.600000054000e-01  -9.949207751600e-02  0.0
 -1.700000048000e-01  -1.066984295780e-01  0.0
 -1.800000042000e-01  -1.139047816400e-01  0.0
 -1.500000060000e-01  -1.020000174360e-01  0.0
 -1.600000054000e-01  -1.092063694980e-01  0.0
 -1.700000048000e-01  -1.164127215600e-01  0.0
 -1.500000060000e-01  -1.117143094180e-01  0.0
 -1.600000054000e-01  -1.189206614800e-01  0.0
 -1.500000060000e-01  -1.214286014000e-01  0.0
  1.832975030000e+00  -4.625000060000e-02  0.0
  1.841380024000e+00  -7.700000108000e-02  0.0
  1.849785018000e+00  -1.077500015600e-01  0.0
  1.858190012000e+00  -1.385000020400e-01  0.0
  1.866595006000e+00  -1.692500025200e-01  0.0
  1.875000000000e+00  -2.000000030000e-01  0.0
  1.866380024000e+00  -5.649999976400e-02  0.0
  1.874785018000e+00  -8.725000024400e-02  0.0
  1.883190012000e+00  -1.180000007240e-01  0.0
  1.891595006000e+00  -1.487500012040e-01  0.0
  1.900000000000e+00  -1.795000016840e-01  0.0
  1.899785018000e+00  -6.674999892800e-02  0.0
  1.908190012000e+00  -9.749999940800e-02  0.0
  1.916595006000e+00  -1.282499998880e-01  0.0
  1.925000000000e+00  -1.590000003680e-01  0.0
  1.933190012000e+00  -7.699999809200e-02  0.0
  1.941595006000e+00  -1.077499985720e-01  0.0
  1.950000000000e+00  -1.384999990520e-01  0.0
  1.966595006000e+00  -8.724999725600e-02  0.0
  1.975000000000e+00  -1.179999977360e-01  0.0
  2.000000000000e+00  -9.749999642000e-02  0.0
 -1.500000060000e-01  -1.700000018000e-01  0.0
 -1.444000050800e-01  -1.630000025200e-01  0.0
 -1.388000041600e-01  -1.560000032400e-01  0.0
 -1.332000032400e-01  -1.490000039600e-01  0.0
 -1.276000023200e-01  -1.420000046800e-01  0.0
 -1.220000014000e-01  -1.350000054000e-01  0.0
 -1.500000060000e-01  -1.602857217200e-01  0.0
 -1.444000050800e-01  -1.532857224400e-01  0.0
 -1.388000041600e-01  -1.462857231600e-01  0.0
 -1.332000032400e-01  -1.392857238800e-01  0.0
 -1.276000023200e-01  -1.322857246000e-01  0.0
 -1.500000060000e-01  -1.505714416400e-01  0.0
 -1.444000050800e-01  -1.435714423600e-01  0.0
 -1.388000041600e-01  -1.365714430800e-01  0.0
 -1.332000032400e-01  -1.295714438000e-01  0.0
 -1.500000060000e-01  -1.408571615600e-01  0.0
 -1.444000050800e-01  -1.338571622800e-01  0.0
 -1.388000041600e-01  -1.268571630000e-01  0.0
 -1.500000060000e-01  -1.311428814800e-01  0.0
 -1.444000050800e-01  -1.241428822000e-01  0.0
 -1.500000060000e-01  -1.214286014000e-01  0.0
  2.849999964000e-01  -2.333333530000e-02  0.0
  2.844999968800e-01  -4.666666836000e-02  0.0
  2.839999973600e-01  -7.000000142000e-02  0.0
  2.834999978400e-01  -9.333333448000e-02  0.0
  2.829999983200e-01  -1.166666675400e-01  0.0
  2.824999988000e-01  -1.400000006000e-01  0.0
  2.979999959200e-01  -3.266666830000e-02  0.0
  2.974999964000e-01  -5.600000136000e-02  0.0
  2.969999968800e-01  -7.933333442000e-02  0.0
  2.964999973600e-01  -1.026666674800e-01  0.0
  2.959999978400e-01  -1.260000005400e-01  0.0
  3.109999954400e-01  -4.200000130000e-02  0.0
  3.104999959200e-01  -6.533333436000e-02  0.0
  3.099999964000e-01  -8.866666742000e-02  0.0
  3.094999968800e-01  -1.120000004800e-01  0.0
  3.239999949600e-01  -5.133333430000e-02  0.0
  3.234999954400e-01  -7.466666736000e-02  0.0
  3.229999959200e-01  -9.800000042000e-02  0.0
  3.369999944800e-01  -6.066666730000e-02  0.0
  3.364999949600e-01  -8.400000036000e-02  0.0
  3.499999940000e-01  -7.000000030000e-02  0.0
 -1.071429029000e-01  -1.700000018000e-01  0.0
 -9.857146590000e-02  -1.700000018000e-01  0.0
 -9.000002890000e-02  -1.700000018000e-01  0.0
 -8.142859190000e-02  -1.700000018000e-01  0.0
 -7.285715490000e-02  -1.700000018000e-01  0.0
 -6.428571790000e-02  -1.700000018000e-01  0.0
 -1.037143230360e-01  -1.630000025200e-01  0.0
 -9.514288603600e-02  -1.630000025200e-01  0.0
 -8.657144903600e-02  -1.630000025200e-01  0.0
 -7.800001203600e-02  -1.630000025200e-01  0.0
 -6.942857503600e-02  -1.630000025200e-01  0.0
 -1.002857431720e-01  -1.560000032400e-01  0.0
 -9.171430617200e-02  -1.560000032400e-01  0.0
 -8.314286917200e-02  -1.560000032400e-01  0.0
 -7.457143217200e-02  -1.560000032400e-01  0.0
 -9.685716330800e-02  -1.490000039600e-01  0.0
 -8.828572630800e-02  -1.490000039600e-01  0.0
 -7.971428930800e-02  -1.490000039600e-01  0.0
 -9.342858344400e-02  -1.420000046800e-01  0.0
 -8.485714644400e-02  -1.420000046800e-01  0.0
 -9.000000358000e-02  -1.350000054000e-01  0.0
 -1.312499940000e-01  -2.000000030000e-01  0.0
 -1.264285757800e-01  -1.940000027600e-01  0.0
 -1.216071575600e-01  -1.880000025200e-01  0.0
 -1.167857393400e-01  -1.820000022800e-01  0.0
 -1.119643211200e-01  -1.760000020400e-01  0.0
 -1.071429029000e-01  -1.700000018000e-01  0.0
 -1.349999964000e-01  -1.940000027600e-01  0.0
 -1.301785781800e-01  -1.880000025200e-01  0.0
 -1.253571599600e-01  -1.820000022800e-01  0.0
 -1.205357417400e-01  -1.760000020400e-01  0.0
 -1.157143235200e-01  -1.700000018000e-01  0.0
 -1.387499988000e-01  -1.880000025200e-01  0.0
 -1.339285805800e-01  -1.820000022800e-01  0.0
 -1.291071623600e-01  -1.760000020400e-01  0.0
 -1.242857441400e-01  -1.700000018000e-01  0.0
 -1.425000012000e-01  -1.820000022800e-01  0.0
 -1.376785829800e-01  -1.760000020400e-01  0.0
 -1.328571647600e-01  -1.700000018000e-01  0.0
 -1.462500036000e-01  -1.760000020400e-01  0.0
 -1.414285853800e-01  -1.700000018000e-01  0.0
 -1.500000060000e-01  -1.700000018000e-01  0.0
[...]
POINT_DATA 7854
SCALARS field1 double 1
LOOKUP_TABLE default
 -2.331137479906e-06 
  1.292746403911e-02 
  1.516605306405e-02 
  1.558763680799e-02 
  1.722610771486e-02 
  2.025766783947e-02 
 -3.701406174784e-06 
  1.068772743066e-02 
  1.244101534998e-02 
  1.363883545167e-02 
  1.660525525446e-02 
  1.822883323388e-06 
  8.110323386010e-03 
  9.960709848013e-03 
  1.276322838819e-02 
  9.393690182700e-06 
  5.659693061916e-03 
  8.714833524529e-03 
 -2.793625830897e-06 
  4.452738425040e-03 
  2.907349545533e-06 
  3.899159963789e-02 
  3.769558178208e-02 
  3.530396162509e-02 
  3.025795115528e-02 
  1.980043966173e-02 
 -7.632857161658e-07 
  3.836506436892e-02 
  3.597972628910e-02 
  3.089172711087e-02 
  2.024967372890e-02 
 -2.597008088772e-07 
  3.661147201226e-02 
  3.148322630261e-02 
  2.067392264306e-02 
 -3.006206202453e-07 
  3.203555306115e-02 
  2.107085308150e-02 
 -2.912693801840e-07 
  2.143907274929e-02 
 -1.763390180329e-07 
 -4.164513212967e-07 
  2.025706153494e-02 
  2.337237156489e-02 
  2.663530816296e-02 
  2.939312779472e-02 
  3.159404082154e-02 
  3.337785142989e-02 
  2.369903249459e-02 
  2.643290702965e-02 
  2.914758097138e-02 
  3.142390081074e-02 
  3.323911511459e-02 
  2.694057686759e-02 
  2.932998901667e-02 
  3.154858842437e-02 
  3.337001224834e-02 
  2.997795449920e-02 
  3.205251163671e-02 
  3.381688893993e-02 
  3.281324834978e-02 
  3.459389284295e-02 
  3.544739399679e-02 
  3.337751932148e-02 
  3.159404968155e-02 
  2.939250469218e-02 
  2.663545029414e-02 
  2.337242249458e-02 
  2.025877794209e-02 
  3.194945866103e-02 
  2.981276360781e-02 
  2.717047651006e-02 
  2.386129809464e-02 
  1.998928815379e-02 
  3.050823829845e-02 
  2.803984806123e-02 
  2.495098504975e-02 
  2.106585163709e-02 
  2.912253751722e-02 
  2.633772114098e-02 
  2.280826363334e-02 
  2.785269817264e-02 
  2.475666657691e-02 
  2.666252840777e-02 
  3.894563995054e-02 
  3.899312851083e-02 
  3.874858476135e-02 
  3.814250753793e-02 
  3.708314318988e-02 
  3.544868329966e-02 
  3.809585016853e-02 
  3.776942505915e-02 
  3.711469513264e-02 
  3.607080590340e-02 
  3.459335610182e-02 
  3.710340137125e-02 
  3.640471146948e-02 
  3.532186682465e-02 
  3.381638446602e-02 
  3.598334320959e-02 
  3.489564813140e-02 
  3.336984329329e-02 
  3.473546918838e-02 
  3.323933950335e-02 
  3.337686907003e-02 
  3.968384098732e-02 
  3.336804514339e-02 
  3.420781103699e-02 
  3.399264353886e-02 
  3.712693142169e-02 
  5.757842537976e-04 
  3.523114458955e-02 
  3.545652249092e-02 
  3.453287285271e-02 
  3.448351055455e-02 
  3.310261222234e-02 
  3.514136411919e-02 
  3.541233486312e-02 
  3.429912061548e-02 
  3.490026945210e-02 
  3.499344232727e-02 
  3.488008521352e-02 
  3.390198983608e-02 
  3.551037181004e-02 
  3.364705852154e-02 
  3.639406054308e-02 
  2.666258473412e-02 
  2.860310660415e-02 
  3.028884704948e-02 
  3.178379631172e-02 
  3.312174552429e-02 
  3.430668097523e-02 
  2.785180762091e-02 
  2.967629844499e-02 
  3.129017915871e-02 
  3.271469686630e-02 
  3.396521583428e-02 
  2.912264187008e-02 
  3.086034359405e-02 
  3.237420497295e-02 
  3.368699359667e-02 
  3.050836096744e-02 
  3.211204318350e-02 
  3.348842804778e-02 
  3.194862798045e-02 
  3.337769815744e-02 
  3.337753989158e-02 
  3.571077867723e-02 
  3.485477904639e-02 
  3.525540755460e-02 
  3.537446908045e-02 
  3.535453838904e-02 
  3.687656416912e-02 
  3.511337102337e-02 
  3.507527312194e-02 
  3.530844897727e-02 
  3.530133746109e-02 
  3.546731018054e-02 
  3.512937929874e-02 
  3.525464419536e-02 
  3.531657802400e-02 
  3.528282826791e-02 
  3.538036781852e-02 
  3.532113866485e-02 
  3.528785859732e-02 
  3.535977831542e-02 
  3.541854094593e-02 
  3.492103112165e-02 
  3.404390552684e-02 
  3.517972791575e-02 
  3.623225805813e-02 
  3.721849477753e-02 
  3.813809471530e-02 
  3.899441085083e-02 
  3.488705547046e-02 
  3.595854309222e-02 
  3.696979407079e-02 
  3.792276766842e-02 
  3.881792811183e-02 
  3.561398595962e-02 
  3.663072263317e-02 
  3.760280828043e-02 
  3.853278361724e-02 
  3.631723661426e-02 
  3.728773828353e-02 
  3.823382344558e-02 
  3.700177031270e-02 
  3.794135285299e-02 
  3.767148707437e-02 
 -7.411273371976e-07 
  1.684441300353e-02 
  2.592622531034e-02 
  3.045907413093e-02 
  3.273070304444e-02 
  3.404409203395e-02 
  1.593461972490e-02 
  2.466162001195e-02 
  2.912202133871e-02 
  3.143173025345e-02 
  3.283645125803e-02 
  2.323765974468e-02 
  2.763402850999e-02 
  3.000724542436e-02 
  3.151304472085e-02 
  2.595784543961e-02 
  2.842348681408e-02 
  3.006230165287e-02 
  2.664306057354e-02 
  2.845667484362e-02 
  2.666164500607e-02 
  3.430824661943e-02 
  3.497542685102e-02 
  3.564034942428e-02 
  3.631063939957e-02 
  3.698484993390e-02 
  3.767094184610e-02 
  3.496971675519e-02 
  3.555880600235e-02 
  3.616325638546e-02 
  3.678616643067e-02 
  3.742819794617e-02 
  3.557300821815e-02 
  3.609225944731e-02 
  3.664009075471e-02 
  3.722094035384e-02 
  3.610998503558e-02 
  3.656150498422e-02 
  3.705707527346e-02 
  3.656597506499e-02 
  3.695170502437e-02 
  3.691701609586e-02 
  3.767073776641e-02 
  3.698498755446e-02 
  3.631062414561e-02 
  3.564038815904e-02 
  3.497546502812e-02 
  3.430845208559e-02 
  3.700210672461e-02 
  3.629565935265e-02 
  3.558212975914e-02 
  3.486015408203e-02 
  3.412540119957e-02 
  3.631703162807e-02 
  3.557220913583e-02 
  3.480851488755e-02 
  3.402322593526e-02 
  3.561415076447e-02 
  3.482342284959e-02 
  3.400140431480e-02 
  3.488712558561e-02 
  3.404253919314e-02 
  3.404458904633e-02 
  3.983117307217e-02 
  3.901762215726e-02 
  3.835411820123e-02 
  3.780243088716e-02 
  3.733381510638e-02 
  3.691714613267e-02 
  3.963147595104e-02 
  3.882650288607e-02 
  3.812914984044e-02 
  3.751140978580e-02 
  3.695163091670e-02 
  3.927378021811e-02 
  3.847075744383e-02 
  3.773834370867e-02 
  3.705707229696e-02 
  3.880516433663e-02 
  3.799348790150e-02 
  3.722093829352e-02 
  3.826058959863e-02 
  3.742811107359e-02 
  3.767140373485e-02 
  3.430779119684e-02 
  3.496977601853e-02 
  3.557296120415e-02 
  3.610998483966e-02 
  3.656615091505e-02 
  3.691666586359e-02 
  3.396506050784e-02 
  3.469032506418e-02 
  3.535000858708e-02 
  3.593284220570e-02 
  3.642428349014e-02 
  3.368709729878e-02 
  3.448471314292e-02 
  3.520783539669e-02 
  3.584421078684e-02 
  3.348794240742e-02 
  3.436468160628e-02 
  3.515847809459e-02 
  3.337769754718e-02 
  3.434268773223e-02 
  3.337694650164e-02 
  3.983077719935e-02 
  3.963146416841e-02 
  3.927373103161e-02 
  3.880519991632e-02 
  3.826043505335e-02 
  3.767227323864e-02 
  4.049996989189e-02 
  4.015575318094e-02 
  3.969895796006e-02 
  3.916980051866e-02 
  3.859397784627e-02 
  4.114408034417e-02 
  4.066106570325e-02 
  4.011282123287e-02 
  3.953068226328e-02 
  4.173801997776e-02 
  4.113064203108e-02 
  4.050419514449e-02 
  4.226757656621e-02 
  4.155288324955e-02 
  4.271651845102e-02 
  3.404450351004e-02 
  3.404286745962e-02 
  3.400165175741e-02 
  3.402329214144e-02 
  3.412527919419e-02 
  3.430791921159e-02 
  3.283670386530e-02 
  3.284344501089e-02 
  3.284308322557e-02 
  3.293100490192e-02 
  3.312165738687e-02 
  3.151318315220e-02 
  3.155092741954e-02 
  3.160955945329e-02 
  3.178395091474e-02 
  3.006254787865e-02 
  3.014462131731e-02 
  3.028831698012e-02 
  2.845676284712e-02 
  2.860295196073e-02 
  2.666217620315e-02 
 -1.862219362594e-07 
 -2.889914432477e-07 
 -2.168353414018e-07 
 -3.409006329646e-07 
 -2.743746220353e-07 
 -1.037870023746e-06 
  2.341823391020e-02 
  2.336152708209e-02 
  2.319179121263e-02 
  2.293134534897e-02 
  2.261049183907e-02 
  3.502686867845e-02 
  3.491641262266e-02 
  3.463430654833e-02 
  3.422307388903e-02 
  4.007400089834e-02 
  3.989919599932e-02 
  3.954002134782e-02 
  4.202117366605e-02 
  4.177365036927e-02 
  4.272169267265e-02 
  3.894424080138e-02 
  3.809475887004e-02 
  3.710312121240e-02 
  3.598370067651e-02 
  3.473560083926e-02 
  3.337689289943e-02 
  3.807414920829e-02 
  3.732978100144e-02 
  3.645963924287e-02 
  3.546103521476e-02 
  3.434262853324e-02 
  3.745141505516e-02 
  3.681363494463e-02 
  3.604510636877e-02 
  3.515856439137e-02 
  3.705889694494e-02 
  3.651654115977e-02 
  3.584433786462e-02 
  3.689144618513e-02 
  3.642430305060e-02 
  3.691630814897e-02 
  4.557574182657e-02 
  4.454289992051e-02 
  4.290615762099e-02 
  4.133443048480e-02 
  4.000954938404e-02 
  3.894618459916e-02 
  4.599821216071e-02 
  4.422144358859e-02 
  4.246105859959e-02 
  4.093942166767e-02 
  3.964376977181e-02 
  4.533918450828e-02 
  4.340367117025e-02 
  4.168522556098e-02 
  4.019074649785e-02 
  4.418431213832e-02 
  4.228525714017e-02 
  4.059981443471e-02 
  4.276341953763e-02 
  4.090860493971e-02 
  4.115712892993e-02 
  4.557480792534e-02 
  4.395395702083e-02 
  4.213111792659e-02 
  4.010673321004e-02 
  3.787884578694e-02 
  3.544748872765e-02 
  4.454322381724e-02 
  4.296691224749e-02 
  4.119395843027e-02 
  3.923510617432e-02 
  3.708288435753e-02 
  4.290638738889e-02 
  4.148685747853e-02 
  3.989434149706e-02 
  3.814189362793e-02 
  4.133428934407e-02 
  4.011886799933e-02 
  3.874958157121e-02 
  4.000884741905e-02 
  3.899294674391e-02 
  3.894786648156e-02 
  4.557499236693e-02 
  4.599781491163e-02 
  4.533850043049e-02 
  4.418464034774e-02 
  4.276329420901e-02 
  4.115846325487e-02 
  4.699338353156e-02 
  4.716925996098e-02 
  4.619999546238e-02 
  4.476626041213e-02 
  4.311694205378e-02 
  4.820821050880e-02 
  4.814946217902e-02 
  4.690416924440e-02 
  4.521921937543e-02 
  4.922025170712e-02 
  4.894345563445e-02 
  4.744769250845e-02 
  5.003109993125e-02 
  4.954348763487e-02 
  5.063752908283e-02 
  4.115601221298e-02 
  4.090766789915e-02 
  4.059925892943e-02 
  4.019109402077e-02 
  3.964421303734e-02 
  3.894356416605e-02 
  3.950397073367e-02 
  3.941407286352e-02 
  3.928127082325e-02 
  3.906219205772e-02 
  3.870932253360e-02 
  3.794580198026e-02 
  3.804810253834e-02 
  3.811954901534e-02 
  3.810901781925e-02 
  3.645638945243e-02 
  3.680179964568e-02 
  3.712222887566e-02 
  3.503760231956e-02 
  3.569021888211e-02 
  3.370229159064e-02 
  3.255763003132e-02 
  3.457042927242e-02 
  3.642065463614e-02 
  3.812147817508e-02 
  3.969038127821e-02 
  4.115544084881e-02 
  3.242008733271e-02 
  3.451289174869e-02 
  3.636418171878e-02 
  3.801833476366e-02 
  3.950394494993e-02 
  3.248498857111e-02 
  3.458041870223e-02 
  3.637999123872e-02 
  3.794560208978e-02 
  3.273690318408e-02 
  3.476142926821e-02 
  3.645665380641e-02 
  3.315292427989e-02 
  3.503756264868e-02 
  3.370295138068e-02 
  4.115750294842e-02 
  4.131329253014e-02 
  4.143027422052e-02 
  4.149525792109e-02 
  4.152493998861e-02 
  4.153430205518e-02 
  4.311724346748e-02 
  4.338718677279e-02 
  4.354592488733e-02 
  4.361318855902e-02 
  4.359314734212e-02 
  4.521933399499e-02 
  4.555716802049e-02 
  4.575215711233e-02 
  4.581153981531e-02 
  4.744790364845e-02 
  4.784269672557e-02 
  4.805637224151e-02 
  4.954335229504e-02 
  4.997015052937e-02 
  5.063794775948e-02 
  3.894205997045e-02 
  3.825454080744e-02 
  3.764912900280e-02 
  3.714492931531e-02 
  3.676586365272e-02 
  3.659101107318e-02 
  3.870966280773e-02 
  3.786541755932e-02 
  3.710205189983e-02 
  3.642965341570e-02 
  3.589525176725e-02 
  3.810870492268e-02 
  3.708944172798e-02 
  3.612104972989e-02 
  3.521985964261e-02 
  3.712217421946e-02 
  3.586617047172e-02 
  3.460204930002e-02 
  3.569013090875e-02 
  3.408599569666e-02 
  3.370313346872e-02 
  3.702307899703e-02 
  3.557224669019e-02 
  3.512976805078e-02 
  3.519039640983e-02 
  3.579335215951e-02 
  3.681590014328e-02 
  3.520280009851e-02 
  3.536378441631e-02 
  3.538819112428e-02 
  3.571809154319e-02 
  3.625256967113e-02 
  3.517399307395e-02 
  3.495532164421e-02 
  3.481346115374e-02 
  3.433511658638e-02 
  3.497508989131e-02 
  3.529225186077e-02 
  3.476556096053e-02 
  3.006959064850e-02 
  3.409068133943e-02 
  2.733445798257e-04 
  3.196946226126e-02 
  3.349350636862e-02 
  3.461485963053e-02 
  3.546575991221e-02 
  3.610756934368e-02 
  3.659455403344e-02 
  3.356627387506e-02 
  3.473106487250e-02 
  3.558041391978e-02 
  3.621629086410e-02 
  3.668003044963e-02 
  3.527534448823e-02 
  3.605590152708e-02 
  3.661051305705e-02 
  3.701460713279e-02 
  3.704148037725e-02 
  3.742534247595e-02 
  3.767381227889e-02 
  3.880375339427e-02 
  3.879432545712e-02 
  4.050423949061e-02 
  3.659070815090e-02 
  3.676590315794e-02 
  3.714484455105e-02 
  3.764929669739e-02 
  3.825449547990e-02 
  3.894251810961e-02 
  3.712029082356e-02 
  3.713463640226e-02 
  3.733142263660e-02 
  3.765498615751e-02 
  3.807411383368e-02 
  3.738668811986e-02 
  3.726055721903e-02 
  3.729890525752e-02 
  3.745087996861e-02 
  3.742120999943e-02 
  3.717291516080e-02 
  3.705918256910e-02 
  3.725931948550e-02 
  3.689127956173e-02 
  3.691695806284e-02 
  1.359525635464e-02 
  1.660944490838e-02 
  1.920781375729e-02 
  2.144704481384e-02 
  2.339242360630e-02 
  2.510923010047e-02 
  1.481737435265e-02 
  1.771324293817e-02 
  2.018852801559e-02 
  2.230819581544e-02 
  2.413172850829e-02 
  1.636692883876e-02 
  1.914923782630e-02 
  2.145255968462e-02 
  2.340248751740e-02 
  1.828198424237e-02 
  2.088713651722e-02 
  2.297263030819e-02 
  2.055506328563e-02 
  2.289696267206e-02 
  2.311938073209e-02 
  2.510698076304e-02 
  2.745026156931e-02 
  2.940466192767e-02 
  3.105157233892e-02 
  3.246684164280e-02 
  3.370494526837e-02 
  2.602248836660e-02 
  2.818556590001e-02 
  2.997500259644e-02 
  3.148755965916e-02 
  3.278472377827e-02 
  2.722966313012e-02 
  2.912654572201e-02 
  3.070324174089e-02 
  3.204506723652e-02 
  2.867035201261e-02 
  3.024403191536e-02 
  3.156560102149e-02 
  3.027235592809e-02 
  3.149242325492e-02 
  3.197082772784e-02 
  3.196787931778e-02 
  3.096220127487e-02 
  2.968847337901e-02 
  2.808604032544e-02 
  2.597713125439e-02 
  2.311997001850e-02 
  3.027160494995e-02 
  2.896495817562e-02 
  2.737634910234e-02 
  2.540305059311e-02 
  2.289699062882e-02 
  2.867027114362e-02 
  2.711200416970e-02 
  2.524185275358e-02 
  2.297249669003e-02 
  2.722935201666e-02 
  2.547863694008e-02 
  2.340227005252e-02 
  2.602184245419e-02 
  2.413188224196e-02 
  2.510894563530e-02 
  2.510637180379e-02 
  2.609888989378e-02 
  2.753165344365e-02 
  2.917024021564e-02 
  3.087371220520e-02 
  3.255786055616e-02 
  2.745050658101e-02 
  2.830119693253e-02 
  2.951353011612e-02 
  3.092546356371e-02 
  3.241994864800e-02 
  2.940478483010e-02 
  3.016049228028e-02 
  3.123058255191e-02 
  3.248470379379e-02 
  3.105135691215e-02 
  3.175950962442e-02 
  3.273685788417e-02 
  3.246701742925e-02 
  3.315313553586e-02 
  3.370362291299e-02 
  3.983095745631e-02 
  4.015293027008e-02 
  4.040867206946e-02 
  4.058530404886e-02 
  4.064828641085e-02 
  4.050496882407e-02 
  3.922783189091e-02 
  3.935316589510e-02 
  3.935339424529e-02 
  3.918771301371e-02 
  3.879420674657e-02 
  3.857190277667e-02 
  3.848106908068e-02 
  3.820281277088e-02 
  3.767401167447e-02 
  3.789248826124e-02 
  3.757661239606e-02 
  3.701444497396e-02 
  3.721975399692e-02 
  3.668012064533e-02 
  3.659399786229e-02 
  3.197200428977e-02 
  3.149213117644e-02 
  3.156588167811e-02 
  3.204494444965e-02 
  3.278485772070e-02 
  3.370442739755e-02 
  3.349316691577e-02 
  3.304977360628e-02 
  3.308391139943e-02 
  3.346099121094e-02 
  3.408663118208e-02 
  3.461520544804e-02 
  3.425187781073e-02 
  3.427753208530e-02 
  3.460272641882e-02 
  3.546563261619e-02 
  3.517992434268e-02 
  3.522057968632e-02 
  3.610779237237e-02 
  3.589560899991e-02 
  3.659279732469e-02 
  3.983159218241e-02 
  3.922756766776e-02 
  3.857165872149e-02 
  3.789200590142e-02 
  3.721941842421e-02 
  3.659189669421e-02 
  3.901758480562e-02 
  3.854602766154e-02 
  3.805758551022e-02 
  3.757364338297e-02 
  3.712014686111e-02 
  3.835424942426e-02 
  3.801650595219e-02 
  3.768845871941e-02 
  3.738685264756e-02 
  3.780233742938e-02 
  3.759763761923e-02 
  3.742121148296e-02 
  3.733394145410e-02 
  3.725970189217e-02 
  3.691672773956e-02 
  2.510781415123e-02 
  2.339284007886e-02 
  2.144687989173e-02 
  1.920750110979e-02 
  1.660949749551e-02 
  1.359606536584e-02 
  2.395535699516e-02 
  2.209006561613e-02 
  1.995823365541e-02 
  1.751604209538e-02 
  1.472744874988e-02 
  2.308621400205e-02 
  2.111556349257e-02 
  1.887717231047e-02 
  1.633307359597e-02 
  2.253281962914e-02 
  2.052694448733e-02 
  1.826986986814e-02 
  2.231813405640e-02 
  2.034980644980e-02 
  2.243371921208e-02 
  4.271726775016e-02 
  4.155284677879e-02 
  4.050443466745e-02 
  3.953055756214e-02 
  3.859411779856e-02 
  3.767183021111e-02 
  4.184119565673e-02 
  4.080311608274e-02 
  3.982446976158e-02 
  3.887796959290e-02 
  3.794169439194e-02 
  4.102840141846e-02 
  4.007686583402e-02 
  3.915109110899e-02 
  3.823380894440e-02 
  4.030115283411e-02 
  3.942005346952e-02 
  3.853314854256e-02 
  3.967728868835e-02 
  3.881802444560e-02 
  3.899707061183e-02 
  3.963030469718e-02 
  3.514669379364e-02 
  3.510383584413e-02 
  3.497953580218e-02 
  3.544779040582e-02 
  3.653988048915e-02 
  3.565107212349e-02 
  3.497525998246e-02 
  3.509231844671e-02 
  3.510014992151e-02 
  3.571688918504e-02 
  3.495124394451e-02 
  3.522076430480e-02 
  3.512259971453e-02 
  3.555571690735e-02 
  3.488308768229e-02 
  3.491767712347e-02 
  3.635059368627e-02 
  3.551078524460e-02 
  3.662724729425e-02 
  3.648180609927e-02 
  4.479539215757e-02 
  4.406542405274e-02 
  4.345296710810e-02 
  4.295460074845e-02 
  4.255829030675e-02 
  4.210651886725e-02 
  4.515543077163e-02 
  4.436592181885e-02 
  4.371041840031e-02 
  4.318827612975e-02 
  4.276972366417e-02 
  4.542981341821e-02 
  4.458912173566e-02 
  4.390463323812e-02 
  4.336435960934e-02 
  4.560774286939e-02 
  4.473326452834e-02 
  4.403292391398e-02 
  4.568925794157e-02 
  4.479850994480e-02 
  4.567351316636e-02 
  4.479484689820e-02 
  4.454746892927e-02 
  4.421192249030e-02 
  4.378935033653e-02 
  4.328577784522e-02 
  4.271629536852e-02 
  4.337571982463e-02 
  4.308163462363e-02 
  4.272429245816e-02 
  4.230926249740e-02 
  4.184124410856e-02 
  4.215657076700e-02 
  4.182086985308e-02 
  4.144348428393e-02 
  4.102820638879e-02 
  4.107889540221e-02 
  4.070720396523e-02 
  4.030121228496e-02 
  4.007840956182e-02 
  3.967702630482e-02 
  3.899797565925e-02 
  3.983044179694e-02 
  4.077421830100e-02 
  4.196208089183e-02 
  4.350284104959e-02 
  4.552274730035e-02 
  4.816431268514e-02 
  4.015274700325e-02 
  4.119380650175e-02 
  4.256747551588e-02 
  4.441547527078e-02 
  4.688069155140e-02 
  4.040834515687e-02 
  4.158626433223e-02 
  4.320954577950e-02 
  4.544202396739e-02 
  4.058512066601e-02 
  4.194134240368e-02 
  4.387212022671e-02 
  4.064834938658e-02 
  4.221048367703e-02 
  4.050378598843e-02 
  4.816447253387e-02 
  4.552281734563e-02 
  4.350292257190e-02 
  4.196214567144e-02 
  4.077428853838e-02 
  3.983037179466e-02 
  4.678345013818e-02 
  4.463730733930e-02 
  4.294325048764e-02 
  4.159619695358e-02 
  4.049959693647e-02 
  4.557084686539e-02 
  4.380042283377e-02 
  4.234973059695e-02 
  4.114366475710e-02 
  4.450791276839e-02 
  4.301227159666e-02 
  4.173745637999e-02 
  4.356471140816e-02 
  4.226689939375e-02 
  4.271523075065e-02 
  5.323479013713e-02 
  5.261877047014e-02 
  5.178944372897e-02 
  5.075530168820e-02 
  4.953414402094e-02 
  4.816661904884e-02 
  5.019161300934e-02 
  4.954314157461e-02 
  4.874323508088e-02 
  4.781371088614e-02 
  4.678324431389e-02 
  4.771795297282e-02 
  4.708974921298e-02 
  4.636832689139e-02 
  4.557116683131e-02 
  4.572143483965e-02 
  4.514334991326e-02 
  4.450765311546e-02 
  4.409027652508e-02 
  4.356468864055e-02 
  4.271401920569e-02 
  4.820068302413e-02 
  4.740989413608e-02 
  4.565527411407e-02 