# vtk DataFile Version 2
NuDG++ 2D simulation
ASCII
DATASET UNSTRUCTURED_GRID

POINTS 7854 double
 -1.656250060000e-01  -2.000000030000e-01  0.0
 -1.725000054000e-01  -1.908888817000e-01  0.0
 -1.793750048000e-01  -1.817777604000e-01  0.0
 -1.862500042000e-01  -1.726666391000e-01  0.0
 -1.931250036000e-01  -1.635555178000e-01  0.0
 -2.000000030000e-01  -1.544443965000e-01  0.0
 -1.725000054000e-01  -2.000000030000e-01  0.0
 -1.793750048000e-01  -1.908888817000e-01  0.0
 -1.862500042000e-01  -1.817777604000e-01  0.0
 -1.931250036000e-01  -1.726666391000e-01  0.0
 -2.000000030000e-01  -1.635555178000e-01  0.0
 -1.793750048000e-01  -2.000000030000e-01  0.0
 -1.862500042000e-01  -1.908888817000e-01  0.0
 -1.931250036000e-01  -1.817777604000e-01  0.0
 -2.000000030000e-01  -1.726666391000e-01  0.0
 -1.862500042000e-01  -2.000000030000e-01  0.0
 -1.931250036000e-01  -1.908888817000e-01  0.0
 -2.000000030000e-01  -1.817777604000e-01  0.0
 -1.931250036000e-01  -2.000000030000e-01  0.0
 -2.000000030000e-01  -1.908888817000e-01  0.0
 -2.000000030000e-01  -2.000000030000e-01  0.0
 -6.428571790000e-02  -1.700000018000e-01  0.0
 -7.080357372400e-02  -1.760000020400e-01  0.0
 -7.732142954800e-02  -1.820000022800e-01  0.0
 -8.383928537200e-02  -1.880000025200e-01  0.0
 -9.035714119600e-02  -1.940000027600e-01  0.0
 -9.687499702000e-02  -2.000000030000e-01  0.0
 -6.392857432000e-02  -1.760000020400e-01  0.0
 -7.044643014400e-02  -1.820000022800e-01  0.0
 -7.696428596800e-02  -1.880000025200e-01  0.0
 -8.348214179200e-02  -1.940000027600e-01  0.0
 -8.999999761600e-02  -2.000000030000e-01  0.0
 -6.357143074000e-02  -1.820000022800e-01  0.0
 -7.008928656400e-02  -1.880000025200e-01  0.0
 -7.660714238800e-02  -1.940000027600e-01  0.0
 -8.312499821200e-02  -2.000000030000e-01  0.0
 -6.321428716000e-02  -1.880000025200e-01  0.0
 -6.973214298400e-02  -1.940000027600e-01  0.0
 -7.624999880800e-02  -2.000000030000e-01  0.0
 -6.285714358000e-02  -1.940000027600e-01  0.0
 -6.937499940400e-02  -2.000000030000e-01  0.0
 -6.250000000000e-02  -2.000000030000e-01  0.0
 -2.000000030000e-01  -1.544443965000e-01  0.0
 -1.900000036000e-01  -1.478412374800e-01  0.0
 -1.800000042000e-01  -1.412380784600e-01  0.0
 -1.700000048000e-01  -1.346349194400e-01  0.0
 -1.600000054000e-01  -1.280317604200e-01  0.0
 -1.500000060000e-01  -1.214286014000e-01  0.0
 -2.000000030000e-01  -1.453332975600e-01  0.0
 -1.900000036000e-01  -1.387301385400e-01  0.0
 -1.800000042000e-01  -1.321269795200e-01  0.0
 -1.700000048000e-01  -1.255238205000e-01  0.0
 -1.600000054000e-01  -1.189206614800e-01  0.0
 -2.000000030000e-01  -1.362221986200e-01  0.0
 -1.900000036000e-01  -1.296190396000e-01  0.0
 -1.800000042000e-01  -1.230158805800e-01  0.0
 -1.700000048000e-01  -1.164127215600e-01  0.0
 -2.000000030000e-01  -1.271110996800e-01  0.0
 -1.900000036000e-01  -1.205079406600e-01  0.0
 -1.800000042000e-01  -1.139047816400e-01  0.0
 -2.000000030000e-01  -1.180000007400e-01  0.0
 -1.900000036000e-01  -1.113968417200e-01  0.0
 -2.000000030000e-01  -1.088889018000e-01  0.0
 -1.500000060000e-01  -1.214286014000e-01  0.0
 -1.600000054000e-01  -1.280317604200e-01  0.0
 -1.700000048000e-01  -1.346349194400e-01  0.0
 -1.800000042000e-01  -1.412380784600e-01  0.0
 -1.900000036000e-01  -1.478412374800e-01  0.0
 -2.000000030000e-01  -1.544443965000e-01  0.0
 -1.500000060000e-01  -1.311428814800e-01  0.0
 -1.600000054000e-01  -1.377460405000e-01  0.0
 -1.700000048000e-01  -1.443491995200e-01  0.0
 -1.800000042000e-01  -1.509523585400e-01  0.0
 -1.900000036000e-01  -1.575555175600e-01  0.0
 -1.500000060000e-01  -1.408571615600e-01  0.0
 -1.600000054000e-01  -1.474603205800e-01  0.0
 -1.700000048000e-01  -1.540634796000e-01  0.0
 -1.800000042000e-01  -1.606666386200e-01  0.0
 -1.500000060000e-01  -1.505714416400e-01  0.0
 -1.600000054000e-01  -1.571746006600e-01  0.0
 -1.700000048000e-01  -1.637777596800e-01  0.0
 -1.500000060000e-01  -1.602857217200e-01  0.0
 -1.600000054000e-01  -1.668888807400e-01  0.0
 -1.500000060000e-01  -1.700000018000e-01  0.0
 -1.500000060000e-01  -7.285714149000e-02  0.0
 -1.600000054000e-01  -8.006349355200e-02  0.0
 -1.700000048000e-01  -8.726984561400e-02  0.0
 -1.800000042000e-01  -9.447619767600e-02  0.0
 -1.900000036000e-01  -1.016825497380e-01  0.0
 -2.000000030000e-01  -1.088889018000e-01  0.0
 -1.500000060000e-01  -8.257143347200e-02  0.0
 -1.600000054000e-01  -8.977778553400e-02  0.0
 -1.700000048000e-01  -9.698413759600e-02  0.0
 -1.800000042000e-01  -1.041904896580e-01  0.0
 -1.900000036000e-01  -1.113968417200e-01  0.0
 -1.500000060000e-01  -9.228572545400e-02  0.0
 -1.600000054000e-01  -9.949207751600e-02  0.0
 -1.700000048000e-01  -1.066984295780e-01  0.0
 -1.800000042000e-01  -1.139047816400e-01  0.0
 -1.500000060000e-01  -1.020000174360e-01  0.0
 -1.600000054000e-01  -1.092063694980e-01  0.0
 -1.700000048000e-01  -1.164127215600e-01  0.0
 -1.500000060000e-01  -1.117143094180e-01  0.0
 -1.600000054000e-01  -1.189206614800e-01  0.0
 -1.500000060000e-01  -1.214286014000e-01  0.0
  1.832975030000e+00  -4.625000060000e-02  0.0
  1.841380024000e+00  -7.700000108000e-02  0.0
  1.849785018000e+00  -1.077500015600e-01  0.0
  1.858190012000e+00  -1.385000020400e-01  0.0
  1.866595006000e+00  -1.692500025200e-01  0.0
  1.875000000000e+00  -2.000000030000e-01  0.0
  1.866380024000e+00  -5.649999976400e-02  0.0
  1.874785018000e+00  -8.725000024400e-02  0.0
  1.883190012000e+00  -1.180000007240e-01  0.0
  1.891595006000e+00  -1.487500012040e-01  0.0
  1.900000000000e+00  -1.795000016840e-01  0.0
  1.899785018000e+00  -6.674999892800e-02  0.0
  1.908190012000e+00  -9.749999940800e-02  0.0
  1.916595006000e+00  -1.282499998880e-01  0.0
  1.925000000000e+00  -1.590000003680e-01  0.0
  1.933190012000e+00  -7.699999809200e-02  0.0
  1.941595006000e+00  -1.077499985720e-01  0.0
  1.950000000000e+00  -1.384999990520e-01  0.0
  1.966595006000e+00  -8.724999725600e-02  0.0
  1.975000000000e+00  -1.179999977360e-01  0.0
  2.000000000000e+00  -9.749999642000e-02  0.0
 -1.500000060000e-01  -1.700000018000e-01  0.0
 -1.444000050800e-01  -1.630000025200e-01  0.0
 -1.388000041600e-01  -1.560000032400e-01  0.0
 -1.332000032400e-01  -1.490000039600e-01  0.0
 -1.276000023200e-01  -1.420000046800e-01  0.0
 -1.220000014000e-01  -1.350000054000e-01  0.0
 -1.500000060000e-01  -1.602857217200e-01  0.0
 -1.444000050800e-01  -1.532857224400e-01  0.0
 -1.388000041600e-01  -1.462857231600e-01  0.0
 -1.332000032400e-01  -1.392857238800e-01  0.0
 -1.276000023200e-01  -1.322857246000e-01  0.0
 -1.500000060000e-01  -1.505714416400e-01  0.0
 -1.444000050800e-01  -1.435714423600e-01  0.0
 -1.388000041600e-01  -1.365714430800e-01  0.0
 -1.332000032400e-01  -1.295714438000e-01  0.0
 -1.500000060000e-01  -1.408571615600e-01  0.0
 -1.444000050800e-01  -1.338571622800e-01  0.0
 -1.388000041600e-01  -1.268571630000e-01  0.0
 -1.500000060000e-01  -1.311428814800e-01  0.0
 -1.444000050800e-01  -1.241428822000e-01  0.0
 -1.500000060000e-01  -1.214286014000e-01  0.0
  2.849999964000e-01  -2.333333530000e-02  0.0
  2.844999968800e-01  -4.666666836000e-02  0.0
  2.839999973600e-01  -7.000000142000e-02  0.0
  2.834999978400e-01  -9.333333448000e-02  0.0
  2.829999983200e-01  -1.166666675400e-01  0.0
  2.824999988000e-01  -1.400000006000e-01  0.0
  2.979999959200e-01  -3.266666830000e-02  0.0
  2.974999964000e-01  -5.600000136000e-02  0.0
  2.969999968800e-01  -7.933333442000e-02  0.0
  2.964999973600e-01  -1.026666674800e-01  0.0
  2.959999978400e-01  -1.260000005400e-01  0.0
  3.109999954400e-01  -4.200000130000e-02  0.0
  3.104999959200e-01  -6.533333436000e-02  0.0
  3.099999964000e-01  -8.866666742000e-02  0.0
  3.094999968800e-01  -1.120000004800e-01  0.0
  3.239999949600e-01  -5.133333430000e-02  0.0
  3.234999954400e-01  -7.466666736000e-02  0.0
  3.229999959200e-01  -9.800000042000e-02  0.0
  3.369999944800e-01  -6.066666730000e-02  0.0
  3.364999949600e-01  -8.400000036000e-02  0.0
  3.499999940000e-01  -7.000000030000e-02  0.0
 -1.071429029000e-01  -1.700000018000e-01  0.0
 -9.857146590000e-02  -1.700000018000e-01  0.0
 -9.000002890000e-02  -1.700000018000e-01  0.0
 -8.142859190000e-02  -1.700000018000e-01  0.0
 -7.285715490000e-02  -1.700000018000e-01  0.0
 -6.428571790000e-02  -1.700000018000e-01  0.0
 -1.037143230360e-01  -1.630000025200e-01  0.0
 -9.514288603600e-02  -1.630000025200e-01  0.0
 -8.657144903600e-02  -1.630000025200e-01  0.0
 -7.800001203600e-02  -1.630000025200e-01  0.0
 -6.942857503600e-02  -1.630000025200e-01  0.0
 -1.002857431720e-01  -1.560000032400e-01  0.0
 -9.171430617200e-02  -1.560000032400e-01  0.0
 -8.314286917200e-02  -1.560000032400e-01  0.0
 -7.457143217200e-02  -1.560000032400e-01  0.0
 -9.685716330800e-02  -1.490000039600e-01  0.0
 -8.828572630800e-02  -1.490000039600e-01  0.0
 -7.971428930800e-02  -1.490000039600e-01  0.0
 -9.342858344400e-02  -1.420000046800e-01  0.0
 -8.485714644400e-02  -1.420000046800e-01  0.0
 -9.000000358000e-02  -1.350000054000e-01  0.0
 -1.312499940000e-01  -2.000000030000e-01  0.0
 -1.264285757800e-01  -1.940000027600e-01  0.0
 -1.216071575600e-01  -1.880000025200e-01  0.0
 -1.167857393400e-01  -1.820000022800e-01  0.0
 -1.119643211200e-01  -1.760000020400e-01  0.0
 -1.071429029000e-01  -1.700000018000e-01  0.0
 -1.349999964000e-01  -1.940000027600e-01  0.0
 -1.301785781800e-01  -1.880000025200e-01  0.0
 -1.253571599600e-01  -1.820000022800e-01  0.0
 -1.205357417400e-01  -1.760000020400e-01  0.0
 -1.157143235200e-01  -1.700000018000e-01  0.0
 -1.387499988000e-01  -1.880000025200e-01  0.0
 -1.339285805800e-01  -1.820000022800e-01  0.0
 -1.291071623600e-01  -1.760000020400e-01  0.0
 -1.242857441400e-01  -1.700000018000e-01  0.0
 -1.425000012000e-01  -1.820000022800e-01  0.0
 -1.376785829800e-01  -1.760000020400e-01  0.0
 -1.328571647600e-01  -1.700000018000e-01  0.0
 -1.462500036000e-01  -1.760000020400e-01  0.0
 -1.414285853800e-01  -1.700000018000e-01  0.0
 -1.500000060000e-01  -1.700000018000e-01  0.0
[...]
POINT_DATA 7854
SCALARS field1 double 1
LOOKUP_TABLE default
  1.896937008523e-05 
  4.314148418319e-03 
  4.022456617525e-03 
  3.935865904658e-03 
  4.305839265799e-03 
  4.962387246187e-03 
 -1.796516124549e-07 
  3.656311250360e-03 
  3.346034978700e-03 
  3.389219200647e-03 
  4.052411277851e-03 
 -2.832137710622e-06 
  2.826529430774e-03 
  2.622381561316e-03 
  3.119834213385e-03 
  2.195227195701e-05 
  1.766513731495e-03 
  2.132551738973e-03 
  1.339794379382e-06 
  1.076230727137e-03 
  6.480678418334e-06 
  9.177606026803e-03 
  9.008691922488e-03 
  8.805020164019e-03 
  8.496684578137e-03 
  6.970029826014e-03 
  1.000602802845e-07 
  9.158355296299e-03 
  8.963005932674e-03 
  8.653739725592e-03 
  7.123118186573e-03 
 -5.583529520490e-07 
  9.107731630545e-03 
  8.801967552687e-03 
  7.261259003168e-03 
 -3.445694316028e-07 
  8.939540194620e-03 
  7.391379780218e-03 
 -5.234058981316e-07 
  7.509430226298e-03 
 -4.910669138337e-07 
 -4.856793137075e-07 
  4.940334316957e-03 
  5.799673805108e-03 
  6.535256042447e-03 
  7.117974442063e-03 
  7.624310539020e-03 
  8.024687594824e-03 
  5.774439957189e-03 
  6.481606501270e-03 
  7.130818483168e-03 
  7.622192613960e-03 
  8.045539991177e-03 
  6.571225537670e-03 
  7.171801769056e-03 
  7.664940419160e-03 
  8.107155097474e-03 
  7.314048240208e-03 
  7.791754728956e-03 
  8.207244301898e-03 
  8.010084182874e-03 
  8.399293671968e-03 
  8.643552338736e-03 
  8.027917893609e-03 
  7.625505876358e-03 
  7.122348972970e-03 
  6.532269930189e-03 
  5.803201145005e-03 
  4.939826261591e-03 
  7.643190359175e-03 
  7.229162034596e-03 
  6.642367683958e-03 
  5.889761083783e-03 
  4.940875381295e-03 
  7.335637325507e-03 
  6.822310387042e-03 
  6.125298052989e-03 
  5.280391061005e-03 
  7.035631023653e-03 
  6.415011738330e-03 
  5.638075155580e-03 
  6.734070047456e-03 
  6.036135647304e-03 
  6.481630904901e-03 
  9.378165088080e-03 
  9.360002944730e-03 
  9.318542222474e-03 
  9.202228752402e-03 
  9.013292265588e-03 
  8.645970016742e-03 
  9.114611799813e-03 
  9.097373674165e-03 
  8.961946018137e-03 
  8.732218708138e-03 
  8.398936679280e-03 
  8.904861605720e-03 
  8.780787653267e-03 
  8.532924092808e-03 
  8.210701483623e-03 
  8.692581981331e-03 
  8.430962615612e-03 
  8.103062645426e-03 
  8.425144357821e-03 
  8.044557359627e-03 
  8.025863916618e-03 
  9.448987996461e-03 
  7.994622292696e-03 
  8.351750556941e-03 
  7.821118326818e-03 
  8.895292500017e-03 
  9.777259955554e-04 
  8.437922687244e-03 
  8.406722250821e-03 
  8.199099581539e-03 
  7.964826173864e-03 
  8.255064555849e-03 
  8.450836270266e-03 
  8.372337046451e-03 
  8.136728359856e-03 
  8.055145423282e-03 
  8.406783143629e-03 
  8.290650731479e-03 
  8.191263929820e-03 
  8.538904415174e-03 
  7.935501528854e-03 
  9.387557350011e-03 
  6.477714155296e-03 
  6.888176879561e-03 
  7.271242437494e-03 
  7.600808260320e-03 
  7.907778773649e-03 
  8.232158293330e-03 
  6.735582907981e-03 
  7.148349617439e-03 
  7.508086712872e-03 
  7.842078619293e-03 
  8.126873023946e-03 
  7.037151471821e-03 
  7.422739902590e-03 
  7.770326876117e-03 
  8.085849052265e-03 
  7.338587079598e-03 
  7.720953361316e-03 
  8.038183403198e-03 
  7.648906537728e-03 
  8.030983748844e-03 
  8.029411823039e-03 
  8.561293097466e-03 
  8.363808451053e-03 
  8.419391170139e-03 
  8.521915551802e-03 
  8.433623388411e-03 
  9.238838671740e-03 
  8.416245764418e-03 
  8.395623011200e-03 
  8.457102633409e-03 
  8.467519940127e-03 
  8.529976210459e-03 
  8.430497421774e-03 
  8.424531552478e-03 
  8.466098613800e-03 
  8.461387143232e-03 
  8.428374807424e-03 
  8.443323510960e-03 
  8.416916957648e-03 
  8.416066425144e-03 
  8.484749061209e-03 
  8.288590560623e-03 
  8.104780099963e-03 
  8.337442748006e-03 
  8.568579255043e-03 
  8.782660996280e-03 
  8.980354521400e-03 
  9.176355749368e-03 
  8.263527889994e-03 
  8.494252795648e-03 
  8.708206869749e-03 
  8.920324482313e-03 
  9.117146402265e-03 
  8.422872855687e-03 
  8.642292584600e-03 
  8.851087834570e-03 
  9.054521772414e-03 
  8.581882259345e-03 
  8.792044918446e-03 
  8.992884593578e-03 
  8.743220104708e-03 
  8.946297196912e-03 
  8.902955281802e-03 
 -4.280525865138e-06 
  5.987053837135e-03 
  7.346347061265e-03 
  7.662411653078e-03 
  7.895014052402e-03 
  8.112534169026e-03 
  5.682465417860e-03 
  7.004755066298e-03 
  7.349911754265e-03 
  7.619226756579e-03 
  7.820647795612e-03 
  6.618271850158e-03 
  6.996785617370e-03 
  7.299213510072e-03 
  7.531402966837e-03 
  6.587454304793e-03 
  6.942405920287e-03 
  7.210382727872e-03 
  6.526939790643e-03 
  6.855419236735e-03 
  6.470669278396e-03 
  8.221732107772e-03 
  8.335998430220e-03 
  8.475054268835e-03 
  8.612608841985e-03 
  8.757128259028e-03 
  8.901024184560e-03 
  8.349304753505e-03 
  8.471882772339e-03 
  8.600648621369e-03 
  8.730956893819e-03 
  8.865757952121e-03 
  8.494716710186e-03 
  8.599881041818e-03 
  8.714663045138e-03 
  8.837101291866e-03 
  8.625390029927e-03 
  8.715033366123e-03 
  8.814969230329e-03 
  8.731560411156e-03 
  8.812216140038e-03 
  8.822975415684e-03 
  8.901835720157e-03 
  8.756944554022e-03 
  8.612996760038e-03 
  8.474733844627e-03 
  8.336172247587e-03 
  8.221719464805e-03 
  8.742535521679e-03 
  8.594698918273e-03 
  8.441542233296e-03 
  8.290267736363e-03 
  8.125314342978e-03 
  8.581322265696e-03 
  8.426713844977e-03 
  8.262701129294e-03 
  8.092047295738e-03 
  8.422535243477e-03 
  8.255027979708e-03 
  8.076951023843e-03 
  8.262736784510e-03 
  8.080156942059e-03 
  8.107093213594e-03 
  9.426454829001e-03 
  9.256926637927e-03 
  9.119848852350e-03 
  9.008613336526e-03 
  8.911709225586e-03 
  8.822554125223e-03 
  9.370895637222e-03 
  9.204650570297e-03 
  9.059205883114e-03 
  8.930134371592e-03 
  8.812109068474e-03 
  9.284687889153e-03 
  9.115518035552e-03 
  8.961570972614e-03 
  8.815324833157e-03 
  9.173196771587e-03 
  9.001689880351e-03 
  8.837290654316e-03 
  9.044925194458e-03 
  8.865801282513e-03 
  8.902308508685e-03 
  8.224942347874e-03 
  8.350056151899e-03 
  8.495104859896e-03 
  8.626236760896e-03 
  8.731219847984e-03 
  8.823197435360e-03 
  8.128936847475e-03 
  8.304718850350e-03 
  8.456284036631e-03 
  8.591609379069e-03 
  8.712515471999e-03 
  8.084020105780e-03 
  8.264471941495e-03 
  8.437168893813e-03 
  8.580151730914e-03 
  8.040037621042e-03 
  8.248108040831e-03 
  8.441560387093e-03 
  8.030772184378e-03 
  8.260313662397e-03 
  8.032663192640e-03 
  9.426306209268e-03 
  9.371161567140e-03 
  9.284639080564e-03 
  9.173225904056e-03 
  9.044532622859e-03 
  8.903760141256e-03 
  9.557794277323e-03 
  9.474076615613e-03 
  9.365287498014e-03 
  9.240753923379e-03 
  9.106692072514e-03 
  9.684382822263e-03 
  9.572230985777e-03 
  9.445025392470e-03 
  9.309239404160e-03 
  9.802835388110e-03 
  9.664296235599e-03 
  9.518478853452e-03 
  9.908666614918e-03 
  9.744933414458e-03 
  1.000027727807e-02 
  8.109523400309e-03 
  8.079574831253e-03 
  8.076974760806e-03 
  8.092289110742e-03 
  8.124115238576e-03 
  8.226465596763e-03 
  7.820427818717e-03 
  7.814405904340e-03 
  7.821185921818e-03 
  7.853029613389e-03 
  7.909196282849e-03 
  7.530249503667e-03 
  7.526276164495e-03 
  7.554206878182e-03 
  7.601629115397e-03 
  7.210390210684e-03 
  7.223323459581e-03 
  7.271458610380e-03 
  6.854200984639e-03 
  6.888963135502e-03 
  6.473719053418e-03 
 -1.852862632737e-07 
 -3.299461234323e-07 
 -4.114478056034e-07 
 -4.925035408783e-07 
 -5.423805123376e-07 
 -7.460627374341e-07 
  8.158940481582e-03 
  8.157194014241e-03 
  8.117425343257e-03 
  8.049557718196e-03 
  7.949804938566e-03 
  9.742013379966e-03 
  9.710244396963e-03 
  9.655349478397e-03 
  9.576003984137e-03 
  9.913120650113e-03 
  9.882577887150e-03 
  9.820603611786e-03 
  9.971171833184e-03 
  9.934067610340e-03 
  1.000330633312e-02 
  9.375645011208e-03 
  9.118128502125e-03 
  8.905885998727e-03 
  8.690965858132e-03 
  8.420581507066e-03 
  8.031393111046e-03 
  9.153162386254e-03 
  8.972138099505e-03 
  8.767874394853e-03 
  8.534614192832e-03 
  8.261039214602e-03 
  9.002268406034e-03 
  8.844458058867e-03 
  8.658803931490e-03 
  8.441597628440e-03 
  8.915847733459e-03 
  8.757667863540e-03 
  8.579080911478e-03 
  8.845364973286e-03 
  8.712876981484e-03 
  8.822512693241e-03 
  1.112883342628e-02 
  1.074501563129e-02 
  1.032470609279e-02 
  9.963153110022e-03 
  9.631552179420e-03 
  9.371895746296e-03 
  1.111560737859e-02 
  1.062849903500e-02 
  1.020243093812e-02 
  9.860480853725e-03 
  9.610578403969e-03 
  1.087894667605e-02 
  1.043121008690e-02 
  1.003044390457e-02 
  9.710407879380e-03 
  1.060239712259e-02 
  1.017152871908e-02 
  9.762532344054e-03 
  1.026564683415e-02 
  9.832303934955e-03 
  9.949302019841e-03 
  1.112213010115e-02 
  1.072730460154e-02 
  1.028182858977e-02 
  9.783013562540e-03 
  9.237118596764e-03 
  8.646242315192e-03 
  1.074565488870e-02 
  1.038634953306e-02 
  9.973623131126e-03 
  9.516481178508e-03 
  9.015432760128e-03 
  1.032047865367e-02 
  9.974125486660e-03 
  9.618829533814e-03 
  9.204580748218e-03 
  9.968474173131e-03 
  9.660088769225e-03 
  9.316867872633e-03 
  9.630399121159e-03 
  9.358038075704e-03 
  9.379891294878e-03 
  1.112235042390e-02 
  1.111894361709e-02 
  1.087969336905e-02 
  1.060269147010e-02 
  1.026376955622e-02 
  9.954689164468e-03 
  1.146271312176e-02 
  1.139584827403e-02 
  1.107929910601e-02 
  1.075679883609e-02 
  1.036696631293e-02 
  1.176072649825e-02 
  1.161792324800e-02 
  1.123418057834e-02 
  1.087630756052e-02 
  1.201116783149e-02 
  1.180514555641e-02 
  1.137313332631e-02 
  1.220888027084e-02 
  1.193266075073e-02 
  1.236074298937e-02 
  9.944278451041e-03 
  9.832718913608e-03 
  9.762029727039e-03 
  9.707677844549e-03 
  9.604179571494e-03 
  9.373404502363e-03 
  9.554908582602e-03 
  9.519246067718e-03 
  9.475305838493e-03 
  9.421026914491e-03 
  9.335614115205e-03 
  9.198730591421e-03 
  9.208996908668e-03 
  9.212129775695e-03 
  9.197804469804e-03 
  8.868528671309e-03 
  8.922433189016e-03 
  8.966119260502e-03 
  8.550891092292e-03 
  8.673447608768e-03 
  8.224744602922e-03 
  7.994197743205e-03 
  8.468429734862e-03 
  8.869777758517e-03 
  9.256399130561e-03 
  9.603281625877e-03 
  9.942629423632e-03 
  8.003527833462e-03 
  8.452230911775e-03 
  8.862319133274e-03 
  9.223943934825e-03 
  9.555102665727e-03 
  8.009958265108e-03 
  8.465449591531e-03 
  8.859805991042e-03 
  9.198409221890e-03 
  8.058478352051e-03 
  8.501695841477e-03 
  8.868484225439e-03 
  8.142440856568e-03 
  8.550220453901e-03 
  8.227738404391e-03 
  9.943169795642e-03 
  1.001280824782e-02 
  1.001247345780e-02 
  1.000891474134e-02 
  1.002390471413e-02 
  1.004326268831e-02 
  1.036895095430e-02 
  1.044611892194e-02 
  1.047598389308e-02 
  1.049499878826e-02 
  1.047291858663e-02 
  1.087112001256e-02 
  1.093073459125e-02 
  1.097969962950e-02 
  1.099747255325e-02 
  1.137750423469e-02 
  1.147014215905e-02 
  1.151422109716e-02 
  1.193073232488e-02 
  1.204240066989e-02 
  1.237219663428e-02 
  9.373474591442e-03 
  9.210593329003e-03 
  9.064396240354e-03 
  8.942253079862e-03 
  8.849665780339e-03 
  8.796513716833e-03 
  9.335044268820e-03 
  9.127968389294e-03 
  8.948680873431e-03 
  8.794071979749e-03 
  8.667280431544e-03 
  9.197287627295e-03 
  8.959571168297e-03 
  8.737499683978e-03 
  8.540805465457e-03 
  8.967257378586e-03 
  8.692835058424e-03 
  8.421469583488e-03 
  8.672876723697e-03 
  8.319045737381e-03 
  8.227867386931e-03 
  9.207107185467e-03 
  8.683746290169e-03 
  8.587779791287e-03 
  8.543180189487e-03 
  8.552168505268e-03 
  8.865517199932e-03 
  8.291731481298e-03 
  8.520570361098e-03 
  8.497236837316e-03 
  8.542612930732e-03 
  8.441655802471e-03 
  8.484780421197e-03 
  8.366413272620e-03 
  8.386364065116e-03 
  8.227463039880e-03 
  8.318419105548e-03 
  8.297203450546e-03 
  8.304173017155e-03 
  8.193162139239e-03 
  8.659378144245e-03 
  5.926378660140e-04 
  7.831060929168e-03 
  8.152160412164e-03 
  8.385447172456e-03 
  8.563584969263e-03 
  8.699260418773e-03 
  8.799295109141e-03 
  8.165872549233e-03 
  8.404629503822e-03 
  8.581956745742e-03 
  8.715258356359e-03 
  8.812182546450e-03 
  8.521883189939e-03 
  8.677026476635e-03 
  8.791750206541e-03 
  8.876119120372e-03 
  8.887220598207e-03 
  8.959086368690e-03 
  9.008896483729e-03 
  9.250912386250e-03 
  9.241313494679e-03 
  9.600667125311e-03 
  8.795871750492e-03 
  8.849777318433e-03 
  8.942112272166e-03 
  9.064313126484e-03 
  9.210101373950e-03 
  9.374493047277e-03 
  8.908267553046e-03 
  8.919474210166e-03 
  8.977642842295e-03 
  9.055600236547e-03 
  9.153349734699e-03 
  8.952726868397e-03 
  8.943372823855e-03 
  8.960920357620e-03 
  9.001859044295e-03 
  8.952600877089e-03 
  8.918556205295e-03 
  8.913889741669e-03 
  8.915680310809e-03 
  8.844840443876e-03 
  8.822222089323e-03 
  3.953430093169e-03 
  4.613087419882e-03 
  5.162831265763e-03 
  5.634830141328e-03 
  6.045012563481e-03 
  6.414050586944e-03 
  4.272808623245e-03 
  4.869895227156e-03 
  5.378959775884e-03 
  5.819440038191e-03 
  6.199575553988e-03 
  4.661620902931e-03 
  5.204353487967e-03 
  5.657936129191e-03 
  6.053306579927e-03 
  5.138020207390e-03 
  5.604810840778e-03 
  5.991790240355e-03 
  5.695417652098e-03 
  6.062773715049e-03 
  6.304894496270e-03 
  6.413866530130e-03 
  6.906980075868e-03 
  7.323909709279e-03 
  7.675851988779e-03 
  7.979976804646e-03 
  8.232519134693e-03 
  6.598259595552e-03 
  7.056287797553e-03 
  7.438059131899e-03 
  7.760864746477e-03 
  8.040927586720e-03 
  6.849777562054e-03 
  7.250070992352e-03 
  7.586258789186e-03 
  7.872170329121e-03 
  7.151312203038e-03 
  7.481006386130e-03 
  7.763189108914e-03 
  7.483827429826e-03 
  7.739551554229e-03 
  7.831551295266e-03 
  7.830150867849e-03 
  7.631390027520e-03 
  7.382056655443e-03 
  7.090950730675e-03 
  6.744032178603e-03 
  6.304898581109e-03 
  7.483047043133e-03 
  7.213388264248e-03 
  6.897822217268e-03 
  6.519604087482e-03 
  6.062828022749e-03 
  7.151042768646e-03 
  6.826577118139e-03 
  6.444886357356e-03 
  5.991699819008e-03 
  6.849386265097e-03 
  6.483520372375e-03 
  6.053262393920e-03 
  6.597794496479e-03 
  6.199619632383e-03 
  6.414096860983e-03 
  6.414462494673e-03 
  6.627911256748e-03 
  6.940686378640e-03 
  7.293682285274e-03 
  7.668038875947e-03 
  7.999963134336e-03 
  6.907201315555e-03 
  7.098489114071e-03 
  7.363788514339e-03 
  7.673056230325e-03 
  8.003017656972e-03 
  7.324210777325e-03 
  7.496010442263e-03 
  7.733286803154e-03 
  8.010120174683e-03 
  7.675794020753e-03 
  7.839647126158e-03 
  8.058647164120e-03 
  7.980354929842e-03 
  8.142113828391e-03 
  8.230859362804e-03 
  9.426055863957e-03 
  9.500442479191e-03 
  9.559520804012e-03 
  9.602402978332e-03 
  9.622066238796e-03 
  9.601060379419e-03 
  9.309730660571e-03 
  9.343268889541e-03 
  9.348740635684e-03 
  9.318038224857e-03 
  9.241260867847e-03 
  9.184025035444e-03 
  9.170326923408e-03 
  9.116723517084e-03 
  9.008992968849e-03 
  9.054633346927e-03 
  8.990638126480e-03 
  8.876005012275e-03 
  8.924026213200e-03 
  8.812260441734e-03 
  8.798913105699e-03 
  7.832505066884e-03 
  7.739438625529e-03 
  7.763477165174e-03 
  7.871916964652e-03 
  8.041145151968e-03 
  8.231386040360e-03 
  8.152169623401e-03 
  8.066979045784e-03 
  8.084386269728e-03 
  8.175343146813e-03 
  8.319778496699e-03 
  8.385620192946e-03 
  8.321483306682e-03 
  8.337418692727e-03 
  8.421643653644e-03 
  8.563424967276e-03 
  8.516852730439e-03 
  8.540690899146e-03 
  8.699506553683e-03 
  8.667366253450e-03 
  8.798105143502e-03 
  9.426015454163e-03 
  9.309627951008e-03 
  9.183989203706e-03 
  9.054689682851e-03 
  8.923944186954e-03 
  8.797170456076e-03 
  9.257054450023e-03 
  9.170075266932e-03 
  9.079253233436e-03 
  8.988488412032e-03 
  8.907723039066e-03 
  9.119814559702e-03 
  9.062385647205e-03 
  9.006012024230e-03 
  8.953061909807e-03 
  9.008739586371e-03 
  8.977654400125e-03 
  8.952675678007e-03 
  8.911903467049e-03 
  8.915120982387e-03 
  8.822195425285e-03 
  6.413951078141e-03 
  6.045123549382e-03 
  5.634879706986e-03 
  5.162598369168e-03 
  4.613273080035e-03 
  3.953244764135e-03 
  6.170548558558e-03 
  5.771850096053e-03 
  5.318792567867e-03 
  4.794030567299e-03 
  4.186694399231e-03 
  5.989410230126e-03 
  5.567164342501e-03 
  5.088059109428e-03 
  4.534767998216e-03 
  5.874625449915e-03 
  5.443381576218e-03 
  4.958357117990e-03 
  5.831052591323e-03 
  5.407749089268e-03 
  5.850639083176e-03 
  1.000076895447e-02 
  9.744773834321e-03 
  9.518679869530e-03 
  9.309124742885e-03 
  9.106600227126e-03 
  8.904080527729e-03 
  9.792054740303e-03 
  9.571190566122e-03 
  9.359297986974e-03 
  9.153543147401e-03 
  8.946525324353e-03 
  9.609890384513e-03 
  9.402239750559e-03 
  9.199980799475e-03 
  8.993518471828e-03 
  9.442209922974e-03 
  9.250275333491e-03 
  9.054789026363e-03 
  9.303224694537e-03 
  9.117977635274e-03 
  9.176172972002e-03 
  9.287774174342e-03 
  8.418685913043e-03 
  8.410479793778e-03 
  8.393640690442e-03 
  8.483197009855e-03 
  9.412309184718e-03 
  8.275417573461e-03 
  8.213389831322e-03 
  8.228701621043e-03 
  8.226190404199e-03 
  8.222293042439e-03 
  8.250535145325e-03 
  8.241442817148e-03 
  8.268013318521e-03 
  8.293515996530e-03 
  8.225262922433e-03 
  8.200433340958e-03 
  8.136888530289e-03 
  8.198674551311e-03 
  8.384085052867e-03 
  8.224771795286e-03 
  1.041530636114e-02 
  1.024833268092e-02 
  1.010675457614e-02 
  1.000008943803e-02 
  9.921421886783e-03 
  9.843985550636e-03 
  1.048609868854e-02 
  1.031046020093e-02 
  1.016358472248e-02 
  1.005052168024e-02 
  9.966358260912e-03 
  1.054245150761e-02 
  1.035604194612e-02 
  1.020470791563e-02 
  1.008697526956e-02 
  1.057841162755e-02 
  1.038736728112e-02 
  1.022852450420e-02 
  1.059540804075e-02 
  1.040000088852e-02 
  1.059339252314e-02 
  1.041426541571e-02 
  1.036476830056e-02 
  1.029591295748e-02 
  1.020891472880e-02 
  1.010839209552e-02 
  9.999708397088e-03 
  1.010402912447e-02 
  1.004556076399e-02 
  9.972585511829e-03 
  9.888469913942e-03 
  9.792181884562e-03 
  9.833213859587e-03 
  9.768356504160e-03 
  9.692481917634e-03 
  9.609591135047e-03 
  9.601515740240e-03 
  9.525341057006e-03 
  9.442225527576e-03 
  9.386301224148e-03 
  9.302976327417e-03 
  9.176436912596e-03 
  9.425963800872e-03 
  9.625347456960e-03 
  9.874184934572e-03 
  1.019789080677e-02 
  1.062331518253e-02 
  1.118799709952e-02 
  9.500356117333e-03 
  9.719055669452e-03 
  1.000701311239e-02 
  1.039626272989e-02 
  1.092097292324e-02 
  9.559392653835e-03 
  9.806624179847e-03 
  1.014814544681e-02 
  1.062551691778e-02 
  9.602288345295e-03 
  9.887102301039e-03 
  1.030296713103e-02 
  9.621987561825e-03 
  9.958726873077e-03 
  9.600563362232e-03 
  1.118799582694e-02 
  1.062336054851e-02 
  1.019789256891e-02 
  9.874242043634e-03 
  9.625341043677e-03 
  9.426169690189e-03 
  1.087968106089e-02 
  1.042812784587e-02 
  1.007267216620e-02 
  9.789413866798e-03 
  9.557414114266e-03 
  1.061761384883e-02 
  1.024522873952e-02 
  9.939561488328e-03 
  9.684211245619e-03 
  1.038703990042e-02 
  1.007111431312e-02 
  9.802358636175e-03 
  1.018053184117e-02 
  9.908226581140e-03 
  9.999095806965e-03 
  1.222957810389e-02 
  1.210251268883e-02 
  1.193401230423e-02 
  1.172373585596e-02 
  1.147249608245e-02 
  1.118924705039e-02 
  1.157938716901e-02 
  1.144739188300e-02 
  1.128303185722e-02 
  1.109119482605e-02 
  1.087953275192e-02 
  1.105606826531e-02 
  1.092856081929e-02 
  1.078084835254e-02 
  1.061778507569e-02 
  1.063361746280e-02 
  1.051636050908e-02 
  1.038686071098e-02 
  1.028869240750e-02 
  1.018046089676e-02 
  9.998244031977e-03 
  1.250822759568e-02 
  1.165014728411e-02 
  1.092048374971e-02 