# vtk DataFile Version 2
NuDG++ 2D simulation
ASCII
DATASET UNSTRUCTURED_GRID

POINTS 7854 double
 -1.656250060000e-01  -2.000000030000e-01  0.0
 -1.725000054000e-01  -1.908888817000e-01  0.0
 -1.793750048000e-01  -1.817777604000e-01  0.0
 -1.862500042000e-01  -1.726666391000e-01  0.0
 -1.931250036000e-01  -1.635555178000e-01  0.0
 -2.000000030000e-01  -1.544443965000e-01  0.0
 -1.725000054000e-01  -2.000000030000e-01  0.0
 -1.793750048000e-01  -1.908888817000e-01  0.0
 -1.862500042000e-01  -1.817777604000e-01  0.0
 -1.931250036000e-01  -1.726666391000e-01  0.0
 -2.000000030000e-01  -1.635555178000e-01  0.0
 -1.793750048000e-01  -2.000000030000e-01  0.0
 -1.862500042000e-01  -1.908888817000e-01  0.0
 -1.931250036000e-01  -1.817777604000e-01  0.0
 -2.000000030000e-01  -1.726666391000e-01  0.0
 -1.862500042000e-01  -2.000000030000e-01  0.0
 -1.931250036000e-01  -1.908888817000e-01  0.0
 -2.000000030000e-01  -1.817777604000e-01  0.0
 -1.931250036000e-01  -2.000000030000e-01  0.0
 -2.000000030000e-01  -1.908888817000e-01  0.0
 -2.000000030000e-01  -2.000000030000e-01  0.0
 -6.428571790000e-02  -1.700000018000e-01  0.0
 -7.080357372400e-02  -1.760000020400e-01  0.0
 -7.732142954800e-02  -1.820000022800e-01  0.0
 -8.383928537200e-02  -1.880000025200e-01  0.0
 -9.035714119600e-02  -1.940000027600e-01  0.0
 -9.687499702000e-02  -2.000000030000e-01  0.0
 -6.392857432000e-02  -1.760000020400e-01  0.0
 -7.044643014400e-02  -1.820000022800e-01  0.0
 -7.696428596800e-02  -1.880000025200e-01  0.0
 -8.348214179200e-02  -1.940000027600e-01  0.0
 -8.999999761600e-02  -2.000000030000e-01  0.0
 -6.357143074000e-02  -1.820000022800e-01  0.0
 -7.008928656400e-02  -1.880000025200e-01  0.0
 -7.660714238800e-02  -1.940000027600e-01  0.0
 -8.312499821200e-02  -2.000000030000e-01  0.0
 -6.321428716000e-02  -1.880000025200e-01  0.0
 -6.973214298400e-02  -1.940000027600e-01  0.0
 -7.624999880800e-02  -2.000000030000e-01  0.0
 -6.285714358000e-02  -1.940000027600e-01  0.0
 -6.937499940400e-02  -2.000000030000e-01  0.0
 -6.250000000000e-02  -2.000000030000e-01  0.0
 -2.000000030000e-01  -1.544443965000e-01  0.0
 -1.900000036000e-01  -1.478412374800e-01  0.0
 -1.800000042000e-01  -1.412380784600e-01  0.0
 -1.700000048000e-01  -1.346349194400e-01  0.0
 -1.600000054000e-01  -1.280317604200e-01  0.0
 -1.500000060000e-01  -1.214286014000e-01  0.0
 -2.000000030000e-01  -1.453332975600e-01  0.0
 -1.900000036000e-01  -1.387301385400e-01  0.0
 -1.800000042000e-01  -1.321269795200e-01  0.0
 -1.700000048000e-01  -1.255238205000e-01  0.0
 -1.600000054000e-01  -1.189206614800e-01  0.0
 -2.000000030000e-01  -1.362221986200e-01  0.0
 -1.900000036000e-01  -1.296190396000e-01  0.0
 -1.800000042000e-01  -1.230158805800e-01  0.0
 -1.700000048000e-01  -1.164127215600e-01  0.0
 -2.000000030000e-01  -1.271110996800e-01  0.0
 -1.900000036000e-01  -1.205079406600e-01  0.0
 -1.800000042000e-01  -1.139047816400e-01  0.0
 -2.000000030000e-01  -1.180000007400e-01  0.0
 -1.900000036000e-01  -1.113968417200e-01  0.0
 -2.000000030000e-01  -1.088889018000e-01  0.0
 -1.500000060000e-01  -1.214286014000e-01  0.0
 -1.600000054000e-01  -1.280317604200e-01  0.0
 -1.700000048000e-01  -1.346349194400e-01  0.0
 -1.800000042000e-01  -1.412380784600e-01  0.0
 -1.900000036000e-01  -1.478412374800e-01  0.0
 -2.000000030000e-01  -1.544443965000e-01  0.0
 -1.500000060000e-01  -1.311428814800e-01  0.0
 -1.600000054000e-01  -1.377460405000e-01  0.0
 -1.700000048000e-01  -1.443491995200e-01  0.0
 -1.800000042000e-01  -1.509523585400e-01  0.0
 -1.900000036000e-01  -1.575555175600e-01  0.0
 -1.500000060000e-01  -1.408571615600e-01  0.0
 -1.600000054000e-01  -1.474603205800e-01  0.0
 -1.700000048000e-01  -1.540634796000e-01  0.0
 -1.800000042000e-01  -1.606666386200e-01  0.0
 -1.500000060000e-01  -1.505714416400e-01  0.0
 -1.600000054000e-01  -1.571746006600e-01  0.0
 -1.700000048000e-01  -1.637777596800e-01  0.0
 -1.500000060000e-01  -1.602857217200e-01  0.0
 -1.600000054000e-01  -1.668888807400e-01  0.0
 -1.500000060000e-01  -1.700000018000e-01  0.0
 -1.500000060000e-01  -7.285714149000e-02  0.0
 -1.600000054000e-01  -8.006349355200e-02  0.0
 -1.700000048000e-01  -8.726984561400e-02  0.0
 -1.800000042000e-01  -9.447619767600e-02  0.0
 -1.900000036000e-01  -1.016825497380e-01  0.0
 -2.000000030000e-01  -1.088889018000e-01  0.0
 -1.500000060000e-01  -8.257143347200e-02  0.0
 -1.600000054000e-01  -8.977778553400e-02  0.0
 -1.700000048000e-01  -9.698413759600e-02  0.0
 -1.800000042000e-01  -1.041904896580e-01  0.0
 -1.900000036000e-01  -1.113968417200e-01  0.0
 -1.500000060000e-01  -9.228572545400e-02  0.0
 -1.600000054000e-01  -9.949207751600e-02  0.0
 -1.700000048000e-01  -1.066984295780e-01  0.0
 -1.800000042000e-01  -1.139047816400e-01  0.0
 -1.500000060000e-01  -1.020000174360e-01  0.0
 -1.600000054000e-01  -1.092063694980e-01  0.0
 -1.700000048000e-01  -1.164127215600e-01  0.0
 -1.500000060000e-01  -1.117143094180e-01  0.0
 -1.600000054000e-01  -1.189206614800e-01  0.0
 -1.500000060000e-01  -1.214286014000e-01  0.0
  1.832975030000e+00  -4.625000060000e-02  0.0
  1.841380024000e+00  -7.700000108000e-02  0.0
  1.849785018000e+00  -1.077500015600e-01  0.0
  1.858190012000e+00  -1.385000020400e-01  0.0
  1.866595006000e+00  -1.692500025200e-01  0.0
  1.875000000000e+00  -2.000000030000e-01  0.0
  1.866380024000e+00  -5.649999976400e-02  0.0
  1.874785018000e+00  -8.725000024400e-02  0.0
  1.883190012000e+00  -1.180000007240e-01  0.0
  1.891595006000e+00  -1.487500012040e-01  0.0
  1.900000000000e+00  -1.795000016840e-01  0.0
  1.899785018000e+00  -6.674999892800e-02  0.0
  1.908190012000e+00  -9.749999940800e-02  0.0
  1.916595006000e+00  -1.282499998880e-01  0.0
  1.925000000000e+00  -1.590000003680e-01  0.0
  1.933190012000e+00  -7.699999809200e-02  0.0
  1.941595006000e+00  -1.077499985720e-01  0.0
  1.950000000000e+00  -1.384999990520e-01  0.0
  1.966595006000e+00  -8.724999725600e-02  0.0
  1.975000000000e+00  -1.179999977360e-01  0.0
  2.000000000000e+00  -9.749999642000e-02  0.0
 -1.500000060000e-01  -1.700000018000e-01  0.0
 -1.444000050800e-01  -1.630000025200e-01  0.0
 -1.388000041600e-01  -1.560000032400e-01  0.0
 -1.332000032400e-01  -1.490000039600e-01  0.0
 -1.276000023200e-01  -1.420000046800e-01  0.0
 -1.220000014000e-01  -1.350000054000e-01  0.0
 -1.500000060000e-01  -1.602857217200e-01  0.0
 -1.444000050800e-01  -1.532857224400e-01  0.0
 -1.388000041600e-01  -1.462857231600e-01  0.0
 -1.332000032400e-01  -1.392857238800e-01  0.0
 -1.276000023200e-01  -1.322857246000e-01  0.0
 -1.500000060000e-01  -1.505714416400e-01  0.0
 -1.444000050800e-01  -1.435714423600e-01  0.0
 -1.388000041600e-01  -1.365714430800e-01  0.0
 -1.332000032400e-01  -1.295714438000e-01  0.0
 -1.500000060000e-01  -1.408571615600e-01  0.0
 -1.444000050800e-01  -1.338571622800e-01  0.0
 -1.388000041600e-01  -1.268571630000e-01  0.0
 -1.500000060000e-01  -1.311428814800e-01  0.0
 -1.444000050800e-01  -1.241428822000e-01  0.0
 -1.500000060000e-01  -1.214286014000e-01  0.0
  2.849999964000e-01  -2.333333530000e-02  0.0
  2.844999968800e-01  -4.666666836000e-02  0.0
  2.839999973600e-01  -7.000000142000e-02  0.0
  2.834999978400e-01  -9.333333448000e-02  0.0
  2.829999983200e-01  -1.166666675400e-01  0.0
  2.824999988000e-01  -1.400000006000e-01  0.0
  2.979999959200e-01  -3.266666830000e-02  0.0
  2.974999964000e-01  -5.600000136000e-02  0.0
  2.969999968800e-01  -7.933333442000e-02  0.0
  2.964999973600e-01  -1.026666674800e-01  0.0
  2.959999978400e-01  -1.260000005400e-01  0.0
  3.109999954400e-01  -4.200000130000e-02  0.0
  3.104999959200e-01  -6.533333436000e-02  0.0
  3.099999964000e-01  -8.866666742000e-02  0.0
  3.094999968800e-01  -1.120000004800e-01  0.0
  3.239999949600e-01  -5.133333430000e-02  0.0
  3.234999954400e-01  -7.466666736000e-02  0.0
  3.229999959200e-01  -9.800000042000e-02  0.0
  3.369999944800e-01  -6.066666730000e-02  0.0
  3.364999949600e-01  -8.400000036000e-02  0.0
  3.499999940000e-01  -7.000000030000e-02  0.0
 -1.071429029000e-01  -1.700000018000e-01  0.0
 -9.857146590000e-02  -1.700000018000e-01  0.0
 -9.000002890000e-02  -1.700000018000e-01  0.0
 -8.142859190000e-02  -1.700000018000e-01  0.0
 -7.285715490000e-02  -1.700000018000e-01  0.0
 -6.428571790000e-02  -1.700000018000e-01  0.0
 -1.037143230360e-01  -1.630000025200e-01  0.0
 -9.514288603600e-02  -1.630000025200e-01  0.0
 -8.657144903600e-02  -1.630000025200e-01  0.0
 -7.800001203600e-02  -1.630000025200e-01  0.0
 -6.942857503600e-02  -1.630000025200e-01  0.0
 -1.002857431720e-01  -1.560000032400e-01  0.0
 -9.171430617200e-02  -1.560000032400e-01  0.0
 -8.314286917200e-02  -1.560000032400e-01  0.0
 -7.457143217200e-02  -1.560000032400e-01  0.0
 -9.685716330800e-02  -1.490000039600e-01  0.0
 -8.828572630800e-02  -1.490000039600e-01  0.0
 -7.971428930800e-02  -1.490000039600e-01  0.0
 -9.342858344400e-02  -1.420000046800e-01  0.0
 -8.485714644400e-02  -1.420000046800e-01  0.0
 -9.000000358000e-02  -1.350000054000e-01  0.0
 -1.312499940000e-01  -2.000000030000e-01  0.0
 -1.264285757800e-01  -1.940000027600e-01  0.0
 -1.216071575600e-01  -1.880000025200e-01  0.0
 -1.167857393400e-01  -1.820000022800e-01  0.0
 -1.119643211200e-01  -1.760000020400e-01  0.0
 -1.071429029000e-01  -1.700000018000e-01  0.0
 -1.349999964000e-01  -1.940000027600e-01  0.0
 -1.301785781800e-01  -1.880000025200e-01  0.0
 -1.253571599600e-01  -1.820000022800e-01  0.0
 -1.205357417400e-01  -1.760000020400e-01  0.0
 -1.157143235200e-01  -1.700000018000e-01  0.0
 -1.387499988000e-01  -1.880000025200e-01  0.0
 -1.339285805800e-01  -1.820000022800e-01  0.0
 -1.291071623600e-01  -1.760000020400e-01  0.0
 -1.242857441400e-01  -1.700000018000e-01  0.0
 -1.425000012000e-01  -1.820000022800e-01  0.0
 -1.376785829800e-01  -1.760000020400e-01  0.0
 -1.328571647600e-01  -1.700000018000e-01  0.0
 -1.462500036000e-01  -1.760000020400e-01  0.0
 -1.414285853800e-01  -1.700000018000e-01  0.0
 -1.500000060000e-01  -1.700000018000e-01  0.0
[...]
POINT_DATA 7854
SCALARS field1 double 1
LOOKUP_TABLE default
 -2.454765500148e-06 
  1.303775614875e-02 
  1.532562662932e-02 
  1.576841051559e-02 
  1.743284299637e-02 
  2.050445822385e-02 
 -3.677738872483e-06 
  1.077698731141e-02 
  1.257351682161e-02 
  1.380127776002e-02 
  1.680771381272e-02 
  1.844324503231e-06 
  8.180430185939e-03 
  1.007367005800e-02 
  1.291873819528e-02 
  9.270207947833e-06 
  5.717556083563e-03 
  8.820958184256e-03 
 -2.809026561442e-06 
  4.507117199624e-03 
  2.872744590107e-06 
  3.947817308719e-02 
  3.815109379099e-02 
  3.570297286413e-02 
  3.056196410353e-02 
  1.996736439148e-02 
 -7.499755456205e-07 
  3.882932027524e-02 
  3.638709996804e-02 
  3.120267276998e-02 
  2.042082112176e-02 
 -2.560186234423e-07 
  3.702664453556e-02 
  3.180070793895e-02 
  2.084903576507e-02 
 -2.962988422684e-07 
  3.235913188372e-02 
  2.124969216471e-02 
 -2.870935473284e-07 
  2.162138979992e-02 
 -1.726830887336e-07 
 -4.119256507462e-07 
  2.050398570630e-02 
  2.365451300669e-02 
  2.695691001500e-02 
  2.975112377569e-02 
  3.198169930646e-02 
  3.378910696353e-02 
  2.398797678409e-02 
  2.675353923726e-02 
  2.950137052559e-02 
  3.180795385365e-02 
  3.364708247287e-02 
  2.726898735618e-02 
  2.968670060975e-02 
  3.193344246213e-02 
  3.377890457030e-02 
  3.034340325559e-02 
  3.244339062054e-02 
  3.423086178974e-02 
  3.321323837392e-02 
  3.501644512016e-02 
  3.587952333959e-02 
  3.378873363369e-02 
  3.198171361360e-02 
  2.975047028606e-02 
  2.695707470303e-02 
  2.365453231386e-02 
  2.050572663589e-02 
  3.234315040093e-02 
  3.017746109705e-02 
  2.749925221936e-02 
  2.414723776979e-02 
  2.022880995756e-02 
  3.088331464372e-02 
  2.838130971462e-02 
  2.525090007914e-02 
  2.131536272161e-02 
  2.947964514361e-02 
  2.665719645890e-02 
  2.307998597823e-02 
  2.819319451209e-02 
  2.505423433839e-02 
  2.698372183046e-02 
  3.942718300259e-02 
  3.947594326046e-02 
  3.922714332484e-02 
  3.861159554000e-02 
  3.753679364805e-02 
  3.588080821270e-02 
  3.856785231205e-02 
  3.823628695374e-02 
  3.757186750541e-02 
  3.651337246784e-02 
  3.501591432125e-02 
  3.756234752920e-02 
  3.685342757179e-02 
  3.575583944210e-02 
  3.423034634123e-02 
  3.642708604663e-02 
  3.532458476435e-02 
  3.377874524290e-02 
  3.516302331318e-02 
  3.364732643802e-02 
  3.378807566284e-02 
  4.018047009245e-02 
  3.375855111420e-02 
  3.461447053287e-02 
  3.443331261751e-02 
  3.758039952560e-02 
  5.696554447983e-04 
  3.567149577939e-02 
  3.589223729514e-02 
  3.496219574533e-02 
  3.492701058642e-02 
  3.348437869255e-02 
  3.557756439187e-02 
  3.585334399827e-02 
  3.472875705911e-02 
  3.534442034368e-02 
  3.543178185153e-02 
  3.531268229421e-02 
  3.432027135668e-02 
  3.594916236986e-02 
  3.406855867942e-02 
  3.684684717029e-02 
  2.698379733387e-02 
  2.895371018307e-02 
  3.066256944672e-02 
  3.217743519999e-02 
  3.353295727133e-02 
  3.473299482113e-02 
  2.819228511990e-02 
  3.004133069210e-02 
  3.167664912905e-02 
  3.311983545584e-02 
  3.438664854714e-02 
  2.947973330910e-02 
  3.124052798780e-02 
  3.277436529479e-02 
  3.410412315942e-02 
  3.088341879527e-02 
  3.250826557253e-02 
  3.390245363611e-02 
  3.234228222032e-02 
  3.378963263900e-02 
  3.378874276014e-02 
  3.615747907832e-02 
  3.528499468376e-02 
  3.569328589424e-02 
  3.581220418358e-02 
  3.579453819767e-02 
  3.732083109148e-02 
  3.554742104302e-02 
  3.551146187579e-02 
  3.574684206584e-02 
  3.573819392392e-02 
  3.590543201878e-02 
  3.556570519428e-02 
  3.569298249175e-02 
  3.575512890382e-02 
  3.571921888954e-02 
  3.582350220158e-02 
  3.575964316919e-02 
  3.572665875345e-02 
  3.580310217134e-02 
  3.585697658659e-02 
  3.536102652827e-02 
  3.446367868456e-02 
  3.561471090340e-02 
  3.668136276371e-02 
  3.768086875671e-02 
  3.861288719061e-02 
  3.948096175104e-02 
  3.532302254387e-02 
  3.640909620691e-02 
  3.743417078657e-02 
  3.840017713067e-02 
  3.930760989708e-02 
  3.606066114049e-02 
  3.709133961248e-02 
  3.807682191879e-02 
  3.901961364452e-02 
  3.677320933416e-02 
  3.775709355847e-02 
  3.871625507971e-02 
  3.746663136645e-02 
  3.841921489976e-02 
  3.814500064665e-02 
 -6.682235877904e-07 
  1.698431329769e-02 
  2.618340111899e-02 
  3.079921631835e-02 
  3.312167633105e-02 
  3.446386849317e-02 
  1.606629253306e-02 
  2.490527688762e-02 
  2.944601495439e-02 
  3.180598281016e-02 
  3.324011478766e-02 
  2.346610859076e-02 
  2.794013765348e-02 
  3.036314766326e-02 
  3.189908106100e-02 
  2.624383319018e-02 
  2.875896841919e-02 
  3.042901199716e-02 
  2.695547596284e-02 
  2.880191196115e-02 
  2.698290091919e-02 
  3.473464791827e-02 
  3.541127273917e-02 
  3.608549771580e-02 
  3.676517088631e-02 
  3.744877933886e-02 
  3.814445134417e-02 
  3.540461490664e-02 
  3.600199471145e-02 
  3.661493542906e-02 
  3.724658532703e-02 
  3.789761674295e-02 
  3.601553795541e-02 
  3.654215160950e-02 
  3.709770593800e-02 
  3.768672619814e-02 
  3.655923626934e-02 
  3.701721393210e-02 
  3.751981201511e-02 
  3.702085329819e-02 
  3.741213782676e-02 
  3.737610209731e-02 
  3.814424576400e-02 
  3.744891851779e-02 
  3.676515476885e-02 
  3.608553943591e-02 
  3.541130999902e-02 
  3.473485873009e-02 
  3.746697614854e-02 
  3.675072663585e-02 
  3.602730640838e-02 
  3.529532062902e-02 
  3.455044852202e-02 
  3.677300885813e-02 
  3.601791238222e-02 
  3.524370662107e-02 
  3.444762762023e-02 
  3.606083298277e-02 
  3.525925318640e-02 
  3.442597918914e-02 
  3.532309762494e-02 
  3.446704803250e-02 
  3.446436869214e-02 
  4.033122353709e-02 
  3.950633832855e-02 
  3.883348448960e-02 
  3.827399438629e-02 
  3.779874430008e-02 
  3.737623206519e-02 
  4.012942243928e-02 
  3.931317237732e-02 
  3.860605607125e-02 
  3.797967489303e-02 
  3.741206388156e-02 
  3.976737137560e-02 
  3.895316415323e-02 
  3.821054654534e-02 
  3.751980715452e-02 
  3.929291810486e-02 
  3.846997268900e-02 
  3.768672190742e-02 
  3.874149688229e-02 
  3.789752824149e-02 
  3.814491034312e-02 
  3.473416120115e-02 
  3.540467309245e-02 
  3.601548979273e-02 
  3.655923275414e-02 
  3.702102950396e-02 
  3.737575248054e-02 
  3.438647822439e-02 
  3.512087093233e-02 
  3.578896606933e-02 
  3.637915682360e-02 
  3.687669303512e-02 
  3.410423750145e-02 
  3.491197032908e-02 
  3.564424558290e-02 
  3.628866975413e-02 
  3.390195497870e-02 
  3.478970268215e-02 
  3.559344502769e-02 
  3.378963373740e-02 
  3.476656723749e-02 
  3.378812296125e-02 
  4.033082524690e-02 
  4.012941043697e-02 
  3.976732243709e-02 
  3.929295429546e-02 
  3.874134227924e-02 
  3.814578164997e-02 
  4.100982649128e-02 
  4.066141886065e-02 
  4.019891311353e-02 
  3.966305506731e-02 
  3.907994889541e-02 
  4.166331480806e-02 
  4.117418842147e-02 
  4.061895282432e-02 
  4.002937214010e-02 
  4.226592696927e-02 
  4.165071676486e-02 
  4.101617709119e-02 
  4.280325659922e-02 
  4.207923565225e-02 
  4.325895049869e-02 
  3.446428011994e-02 
  3.446738054057e-02 
  3.442622777256e-02 
  3.444769228891e-02 
  3.455033396457e-02 
  3.473428625868e-02 
  3.324036754793e-02 
  3.325167360269e-02 
  3.325185519969e-02 
  3.334042067696e-02 
  3.353285804380e-02 
  3.189922042017e-02 
  3.194161587323e-02 
  3.200144043659e-02 
  3.217758808717e-02 
  3.042925576075e-02 
  3.051618261700e-02 
  3.066203533339e-02 
  2.880200450105e-02 
  2.895354804755e-02 
  2.698340485858e-02 
 -1.788516442764e-07 
 -2.839262335522e-07 
 -2.119082458820e-07 
 -3.354726565712e-07 
 -2.695758407274e-07 
 -1.026435810380e-06 
  2.361854165973e-02 
  2.356095231509e-02 
  2.338906048985e-02 
  2.312556294426e-02 
  2.280104014704e-02 
  3.538293343632e-02 
  3.527062617988e-02 
  3.498467706020e-02 
  3.456818197883e-02 
  4.053135360514e-02 
  4.035382921926e-02 
  3.998947318994e-02 
  4.253311568432e-02 
  4.228189606210e-02 
  4.325854675001e-02 
  3.942581098757e-02 
  3.856674192198e-02 
  3.756206539793e-02 
  3.642745368472e-02 
  3.516316690330e-02 
  3.378807577847e-02 
  3.854550189302e-02 
  3.779198437673e-02 
  3.691036479220e-02 
  3.589875288302e-02 
  3.476650476046e-02 
  3.791507413753e-02 
  3.726935419281e-02 
  3.649111824090e-02 
  3.559353414083e-02 
  3.751786333942e-02 
  3.696912840898e-02 
  3.628880108802e-02 
  3.734906611720e-02 
  3.687671151765e-02 
  3.737539719665e-02 
  4.613121044338e-02 
  4.509010088645e-02 
  4.343677627752e-02 
  4.184614956772e-02 
  4.050458480070e-02 
  3.942776880992e-02 
  4.656355275076e-02 
  4.476885208608e-02 
  4.298745387901e-02 
  4.144586516855e-02 
  4.013327407748e-02 
  4.590100889906e-02 
  4.394235777445e-02 
  4.220170225620e-02 
  4.068744566058e-02 
  4.473319969331e-02 
  4.280987779619e-02 
  4.110258484575e-02 
  4.329438116709e-02 
  4.141549713450e-02 
  4.166564859845e-02 
  4.613035693343e-02 
  4.448972559166e-02 
  4.264468660362e-02 
  4.059563431567e-02 
  3.834059669680e-02 
  3.587960778860e-02 
  4.509040874325e-02 
  4.349427420245e-02 
  4.169919636983e-02 
  3.971573257360e-02 
  3.753653182502e-02 
  4.343704506960e-02 
  4.199942821124e-02 
  4.038624536639e-02 
  3.861097631126e-02 
  4.184597009854e-02 
  4.061508707745e-02 
  3.922815575338e-02 
  4.050389117821e-02 
  3.947578108068e-02 
  3.942938432020e-02 
  4.613052125969e-02 
  4.656313136243e-02 
  4.590033270110e-02 
  4.473352533657e-02 
  4.329428546501e-02 
  4.166689038979e-02 
  4.756622445406e-02 
  4.774926659417e-02 
  4.677333147270e-02 
  4.532262459841e-02 
  4.365179637908e-02 
  4.879586458609e-02 
  4.874195033263e-02 
  4.748671140119e-02 
  4.578119204255e-02 
  4.982022501309e-02 
  4.954576055464e-02 
  4.803693986542e-02 
  5.064092802565e-02 
  5.015349092317e-02 
  5.125477435353e-02 
  4.166463548650e-02 
  4.141455854499e-02 
  4.110204591788e-02 
  4.068781806022e-02 
  4.013375661727e-02 
  3.942514889840e-02 
  3.999125350241e-02 
  3.990100575766e-02 
  3.976664419340e-02 
  3.954455629511e-02 
  3.918751698170e-02 
  3.841247912535e-02 
  3.851682188696e-02 
  3.858970110389e-02 
  3.857938203400e-02 
  3.690331541068e-02 
  3.725411130203e-02 
  3.757954722539e-02 
  3.546565041955e-02 
  3.612787615197e-02 
  3.411291017925e-02 
  3.295169476667e-02 
  3.499132763207e-02 
  3.686649589686e-02 
  3.858990242843e-02 
  4.017970692860e-02 
  4.166409855613e-02 
  3.281192034333e-02 
  3.493307754166e-02 
  3.680925664504e-02 
  3.848560490731e-02 
  3.999122185472e-02 
  3.287778631733e-02 
  3.500159638186e-02 
  3.682548917670e-02 
  3.841228400985e-02 
  3.313334972350e-02 
  3.518530502471e-02 
  3.690357565697e-02 
  3.355539143050e-02 
  3.546561534139e-02 
  3.411353838685e-02 
  4.166608404733e-02 
  4.182356895450e-02 
  4.194225844351e-02 
  4.200863981603e-02 
  4.203896465279e-02 
  4.204777889452e-02 
  4.365207016838e-02 
  4.392513555571e-02 
  4.408622996725e-02 
  4.415446164377e-02 
  4.413442674886e-02 
  4.578136469424e-02 
  4.612388087741e-02 
  4.632143676351e-02 
  4.638144395913e-02 
  4.803709571700e-02 
  4.843694599340e-02 
  4.865344674848e-02 
  5.015338352742e-02 
  5.058538209445e-02 
  5.125505777258e-02 
  3.942364306524e-02 
  3.872753461755e-02 
  3.811456527851e-02 
  3.760408579706e-02 
  3.722035182127e-02 
  3.704347014795e-02 
  3.918785955275e-02 
  3.833308976520e-02 
  3.756004032710e-02 
  3.687893123554e-02 
  3.633761591157e-02 
  3.857906760578e-02 
  3.754672929379e-02 
  3.656560735840e-02 
  3.565236528660e-02 
  3.757948275550e-02 
  3.630676984225e-02 
  3.502556710026e-02 
  3.612779087768e-02 
  3.450199558832e-02 
  3.411372319589e-02 
  3.748735131830e-02 
  3.601321594860e-02 
  3.555976421821e-02 
  3.562380230711e-02 
  3.624228045952e-02 
  3.725961474183e-02 
  3.564165264785e-02 
  3.579962684702e-02 
  3.582490010702e-02 
  3.616821003999e-02 
  3.672848672539e-02 
  3.561098105289e-02 
  3.539079674936e-02 
  3.524511600479e-02 
  3.476715864071e-02 
  3.539663322581e-02 
  3.572728167069e-02 
  3.518398801781e-02 
  3.038198306353e-02 
  3.446830784756e-02 
  2.699518934422e-04 
  3.235630113164e-02 
  3.390245673357e-02 
  3.503971694776e-02 
  3.590254741202e-02 
  3.655332624572e-02 
  3.704704946884e-02 
  3.397492406101e-02 
  3.515731747761e-02 
  3.601891072533e-02 
  3.666376924090e-02 
  3.713405548757e-02 
  3.570752632751e-02 
  3.650069965838e-02 
  3.706355466839e-02 
  3.747345550027e-02 
  3.749817891184e-02 
  3.788935364859e-02 
  3.814188272108e-02 
  3.928509460233e-02 
  3.927758059808e-02 
  4.100955435123e-02 
  3.704316932523e-02 
  3.722039091361e-02 
  3.760400105618e-02 
  3.811473574751e-02 
  3.872749057704e-02 
  3.942410129388e-02 
  3.758046462684e-02 
  3.759449428272e-02 
  3.779338237553e-02 
  3.812089849453e-02 
  3.854545902744e-02 
  3.785088741190e-02 
  3.772240378942e-02 
  3.776075799500e-02 
  3.791453842976e-02 
  3.788621539336e-02 
  3.763389961876e-02 
  3.751815398014e-02 
  3.772250199123e-02 
  3.734890038449e-02 
  3.737604717950e-02 
  1.373460988483e-02 
  1.678679320172e-02 
  1.941952441791e-02 
  2.168915966698e-02 
  2.366127912358e-02 
  2.540159369346e-02 
  1.496987004378e-02 
  1.790349110422e-02 
  2.041239269115e-02 
  2.256143041540e-02 
  2.441044463020e-02 
  1.653645958219e-02 
  1.935637563616e-02 
  2.169216029071e-02 
  2.366991949394e-02 
  1.847278739333e-02 
  2.111493348264e-02 
  2.323129312631e-02 
  2.077146057214e-02 
  2.314896101441e-02 
  2.336532637911e-02 
  2.539930972681e-02 
  2.777503675198e-02 
  2.975627861078e-02 
  3.142579140354e-02 
  3.286039352954e-02 
  3.411550008233e-02 
  2.632745629594e-02 
  2.852057222177e-02 
  3.033468926702e-02 
  3.186801326084e-02 
  3.318289505174e-02 
  2.755111417358e-02 
  2.947463404193e-02 
  3.107315854779e-02 
  3.243341130729e-02 
  2.901152253785e-02 
  3.060764541023e-02 
  3.194760047046e-02 
  3.063561132545e-02 
  3.187340511223e-02 
  3.235767683751e-02 
  3.235470729568e-02 
  3.133343765745e-02 
  3.003942009265e-02 
  2.841066490016e-02 
  2.626732073198e-02 
  2.336592331131e-02 
  3.063485813208e-02 
  2.930884968988e-02 
  2.769616456138e-02 
  2.569270260730e-02 
  2.314898875351e-02 
  2.901144339607e-02 
  2.743073306588e-02 
  2.553340237041e-02 
  2.323115910450e-02 
  2.755080427584e-02 
  2.577536701661e-02 
  2.366969964728e-02 
  2.632680832799e-02 
  2.441060004413e-02 
  2.540130349941e-02 
  2.539867750115e-02 
  2.640495939609e-02 
  2.785711779257e-02 
  2.951796543060e-02 
  3.124451675946e-02 
  3.295186958879e-02 
  2.777528453959e-02 
  2.863738934260e-02 
  2.986608001446e-02 
  3.129705736903e-02 
  3.281177690048e-02 
  2.975639829638e-02 
  3.052214444815e-02 
  3.160652708590e-02 
  3.287749307613e-02 
  3.142557667265e-02 
  3.214297486789e-02 
  3.313329640847e-02 
  3.286056787065e-02 
  3.355559727710e-02 
  3.411418303272e-02 
  4.033101761183e-02 
  4.065714680291e-02 
  4.091606766335e-02 
  4.109471092176e-02 
  4.115780480384e-02 
  4.101028985864e-02 
  3.971901103503e-02 
  3.984574707177e-02 
  3.984561240704e-02 
  3.967722875838e-02 
  3.927746081149e-02 
  3.905344523679e-02 
  3.896103354390e-02 
  3.867858712271e-02 
  3.814208381177e-02 
  3.836406399628e-02 
  3.804352986332e-02 
  3.747329199972e-02 
  3.768148277975e-02 
  3.713414633108e-02 
  3.704648926893e-02 
  3.235885875399e-02 
  3.187311098939e-02 
  3.194788224265e-02 
  3.243328917393e-02 
  3.318302825896e-02 
  3.411498807739e-02 
  3.390211324871e-02 
  3.345258702863e-02 
  3.348691018613e-02 
  3.386881908785e-02 
  3.450263457084e-02 
  3.504006429651e-02 
  3.467140441802e-02 
  3.469702766290e-02 
  3.502624776844e-02 
  3.590241883012e-02 
  3.561234549134e-02 
  3.565309279969e-02 
  3.655355061867e-02 
  3.633797363775e-02 
  3.704527671970e-02 
  4.033164800022e-02 
  3.971874577497e-02 
  3.905319807231e-02 
  3.836357642986e-02 
  3.768114542223e-02 
  3.704436968417e-02 
  3.950630081743e-02 
  3.902762461492e-02 
  3.853185678929e-02 
  3.804065556166e-02 
  3.758031908879e-02 
  3.883361677326e-02 
  3.849060476549e-02 
  3.815741122668e-02 
  3.785105003372e-02 
  3.827390052862e-02 
  3.806572979432e-02 
  3.788621488281e-02 
  3.779887083388e-02 
  3.772288651915e-02 
  3.737581227340e-02 
  2.540015801158e-02 
  2.366170005064e-02 
  2.168899180518e-02 
  1.941921058401e-02 
  1.678684463818e-02 
  1.373543096780e-02 
  2.423208542294e-02 
  2.234136140688e-02 
  2.018074229900e-02 
  1.770626314131e-02 
  1.488201769803e-02 
  2.335109823410e-02 
  2.135380429581e-02 
  1.908556903431e-02 
  1.650842820975e-02 
  2.279016301875e-02 
  2.075731962390e-02 
  1.847036630511e-02 
  2.257254329669e-02 
  2.057780355351e-02 
  2.268975370213e-02 
  4.325971467827e-02 
  4.207920262554e-02 
  4.101642140763e-02 
  4.002924828511e-02 
  3.908009217882e-02 
  3.814533467216e-02 
  4.237222642655e-02 
  4.131992172219e-02 
  4.032787055416e-02 
  3.936849653400e-02 
  3.841955919065e-02 
  4.154880390976e-02 
  4.058425280942e-02 
  3.964591681880e-02 
  3.871623809829e-02 
  4.081212122066e-02 
  3.991907271870e-02 
  3.901998544397e-02 
  4.017984937639e-02 
  3.930770187079e-02 
  3.948367443989e-02 
  4.013135006348e-02 
  3.558570487969e-02 
  3.554051472374e-02 
  3.541782518976e-02 
  3.588738874077e-02 
  3.699268014143e-02 
  3.610864072537e-02 
  3.541814209200e-02 
  3.553595768330e-02 
  3.554535667060e-02 
  3.615387490516e-02 
  3.539403495821e-02 
  3.566701686631e-02 
  3.556724020659e-02 
  3.600231919392e-02 
  3.531873259878e-02 
  3.535961866313e-02 
  3.683832535419e-02 
  3.596024045629e-02 
  3.710663899695e-02 
  3.695383434315e-02 
  4.536808358165e-02 
  4.462841929651e-02 
  4.400785229908e-02 
  4.350283559292e-02 
  4.310031662984e-02 
  4.263538065770e-02 
  4.573326199170e-02 
  4.493324492632e-02 
  4.426898756654e-02 
  4.373979665746e-02 
  4.331441873209e-02 
  4.601161096187e-02 
  4.515966818682e-02 
  4.446597553021e-02 
  4.391835333713e-02 
  4.619217524202e-02 
  4.530592364715e-02 
  4.459611284692e-02 
  4.627495017845e-02 
  4.537213491359e-02 
  4.625913848482e-02 
  4.536753318373e-02 
  4.511646218582e-02 
  4.477597925683e-02 
  4.434724461648e-02 
  4.383638634061e-02 
  4.325874062450e-02 
  4.392900159148e-02 
  4.363063407966e-02 
  4.326810719268e-02 
  4.284707602210e-02 
  4.237227473406e-02 
  4.269328941199e-02 
  4.235270818430e-02 
  4.196986641615e-02 
  4.154860858375e-02 
  4.160101501143e-02 
  4.122401291052e-02 
  4.081217983190e-02 
  4.058604214201e-02 
  4.017958545223e-02 
  3.948458427598e-02 
  4.033050372641e-02 
  4.128735489675e-02 
  4.249167348675e-02 
  4.405369925642e-02 
  4.610117447362e-02 
  4.877715566047e-02 
  4.065696051938e-02 
  4.171239988918e-02 
  4.310500736128e-02 
  4.497815141822e-02 
  4.747518140671e-02 
  4.091573819917e-02 
  4.210985897379e-02 
  4.375515382120e-02 
  4.601604937817e-02 
  4.109452520108e-02 
  4.246906058329e-02 
  4.442403170907e-02 
  4.115786821831e-02 
  4.273925814573e-02 
  4.100909486984e-02 
  4.877732137463e-02 
  4.610124385510e-02 
  4.405378205857e-02 
  4.249173791305e-02 
  4.128742559210e-02 
  4.033043045360e-02 
  4.738005692480e-02 
  4.520441621065e-02 
  4.348690545686e-02 
  4.212120701507e-02 
  4.100945079974e-02 
  4.615142469167e-02 
  4.435644887661e-02 
  4.288565943991e-02 
  4.166289978827e-02 
  4.507424255384e-02 
  4.355784463927e-02 
  4.226536029813e-02 
  4.411838196725e-02 
  4.280257636280e-02 
  4.325765236326e-02 
  5.392007480736e-02 
  5.329487038460e-02 
  5.245341988355e-02 
  5.140442495347e-02 
  5.016604979203e-02 
  4.877947996689e-02 
  5.083693986359e-02 
  5.017906928411e-02 
  4.936770007976e-02 
  4.842495012087e-02 
  4.737984929358e-02 
  4.832927246179e-02 
  4.769202377330e-02 
  4.696027802839e-02 
  4.615174508171e-02 
  4.630516322602e-02 
  4.571877230295e-02 
  4.507398110458e-02 
  4.465148069216e-02 
  4.411835706999e-02 
  4.325643687132e-02 
  4.872552720633e-02 
  4.795699262657e-02 
  4.620350868156e-02 