# vtk DataFile Version 2
NuDG++ 2D simulation
ASCII
DATASET UNSTRUCTURED_GRID

POINTS 7854 double
 -1.656250060000e-01  -2.000000030000e-01  0.0
 -1.725000054000e-01  -1.908888817000e-01  0.0
 -1.793750048000e-01  -1.817777604000e-01  0.0
 -1.862500042000e-01  -1.726666391000e-01  0.0
 -1.931250036000e-01  -1.635555178000e-01  0.0
 -2.000000030000e-01  -1.544443965000e-01  0.0
 -1.725000054000e-01  -2.000000030000e-01  0.0
 -1.793750048000e-01  -1.908888817000e-01  0.0
 -1.862500042000e-01  -1.817777604000e-01  0.0
 -1.931250036000e-01  -1.726666391000e-01  0.0
 -2.000000030000e-01  -1.635555178000e-01  0.0
 -1.793750048000e-01  -2.000000030000e-01  0.0
 -1.862500042000e-01  -1.908888817000e-01  0.0
 -1.931250036000e-01  -1.817777604000e-01  0.0
 -2.000000030000e-01  -1.726666391000e-01  0.0
 -1.862500042000e-01  -2.000000030000e-01  0.0
 -1.931250036000e-01  -1.908888817000e-01  0.0
 -2.000000030000e-01  -1.817777604000e-01  0.0
 -1.931250036000e-01  -2.000000030000e-01  0.0
 -2.000000030000e-01  -1.908888817000e-01  0.0
 -2.000000030000e-01  -2.000000030000e-01  0.0
 -6.428571790000e-02  -1.700000018000e-01  0.0
 -7.080357372400e-02  -1.760000020400e-01  0.0
 -7.732142954800e-02  -1.820000022800e-01  0.0
 -8.383928537200e-02  -1.880000025200e-01  0.0
 -9.035714119600e-02  -1.940000027600e-01  0.0
 -9.687499702000e-02  -2.000000030000e-01  0.0
 -6.392857432000e-02  -1.760000020400e-01  0.0
 -7.044643014400e-02  -1.820000022800e-01  0.0
 -7.696428596800e-02  -1.880000025200e-01  0.0
 -8.348214179200e-02  -1.940000027600e-01  0.0
 -8.999999761600e-02  -2.000000030000e-01  0.0
 -6.357143074000e-02  -1.820000022800e-01  0.0
 -7.008928656400e-02  -1.880000025200e-01  0.0
 -7.660714238800e-02  -1.940000027600e-01  0.0
 -8.312499821200e-02  -2.000000030000e-01  0.0
 -6.321428716000e-02  -1.880000025200e-01  0.0
 -6.973214298400e-02  -1.940000027600e-01  0.0
 -7.624999880800e-02  -2.000000030000e-01  0.0
 -6.285714358000e-02  -1.940000027600e-01  0.0
 -6.937499940400e-02  -2.000000030000e-01  0.0
 -6.250000000000e-02  -2.000000030000e-01  0.0
 -2.000000030000e-01  -1.544443965000e-01  0.0
 -1.900000036000e-01  -1.478412374800e-01  0.0
 -1.800000042000e-01  -1.412380784600e-01  0.0
 -1.700000048000e-01  -1.346349194400e-01  0.0
 -1.600000054000e-01  -1.280317604200e-01  0.0
 -1.500000060000e-01  -1.214286014000e-01  0.0
 -2.000000030000e-01  -1.453332975600e-01  0.0
 -1.900000036000e-01  -1.387301385400e-01  0.0
 -1.800000042000e-01  -1.321269795200e-01  0.0
 -1.700000048000e-01  -1.255238205000e-01  0.0
 -1.600000054000e-01  -1.189206614800e-01  0.0
 -2.000000030000e-01  -1.362221986200e-01  0.0
 -1.900000036000e-01  -1.296190396000e-01  0.0
 -1.800000042000e-01  -1.230158805800e-01  0.0
 -1.700000048000e-01  -1.164127215600e-01  0.0
 -2.000000030000e-01  -1.271110996800e-01  0.0
 -1.900000036000e-01  -1.205079406600e-01  0.0
 -1.800000042000e-01  -1.139047816400e-01  0.0
 -2.000000030000e-01  -1.180000007400e-01  0.0
 -1.900000036000e-01  -1.113968417200e-01  0.0
 -2.000000030000e-01  -1.088889018000e-01  0.0
 -1.500000060000e-01  -1.214286014000e-01  0.0
 -1.600000054000e-01  -1.280317604200e-01  0.0
 -1.700000048000e-01  -1.346349194400e-01  0.0
 -1.800000042000e-01  -1.412380784600e-01  0.0
 -1.900000036000e-01  -1.478412374800e-01  0.0
 -2.000000030000e-01  -1.544443965000e-01  0.0
 -1.500000060000e-01  -1.311428814800e-01  0.0
 -1.600000054000e-01  -1.377460405000e-01  0.0
 -1.700000048000e-01  -1.443491995200e-01  0.0
 -1.800000042000e-01  -1.509523585400e-01  0.0
 -1.900000036000e-01  -1.575555175600e-01  0.0
 -1.500000060000e-01  -1.408571615600e-01  0.0
 -1.600000054000e-01  -1.474603205800e-01  0.0
 -1.700000048000e-01  -1.540634796000e-01  0.0
 -1.800000042000e-01  -1.606666386200e-01  0.0
 -1.500000060000e-01  -1.505714416400e-01  0.0
 -1.600000054000e-01  -1.571746006600e-01  0.0
 -1.700000048000e-01  -1.637777596800e-01  0.0
 -1.500000060000e-01  -1.602857217200e-01  0.0
 -1.600000054000e-01  -1.668888807400e-01  0.0
 -1.500000060000e-01  -1.700000018000e-01  0.0
 -1.500000060000e-01  -7.285714149000e-02  0.0
 -1.600000054000e-01  -8.006349355200e-02  0.0
 -1.700000048000e-01  -8.726984561400e-02  0.0
 -1.800000042000e-01  -9.447619767600e-02  0.0
 -1.900000036000e-01  -1.016825497380e-01  0.0
 -2.000000030000e-01  -1.088889018000e-01  0.0
 -1.500000060000e-01  -8.257143347200e-02  0.0
 -1.600000054000e-01  -8.977778553400e-02  0.0
 -1.700000048000e-01  -9.698413759600e-02  0.0
 -1.800000042000e-01  -1.041904896580e-01  0.0
 -1.900000036000e-01  -1.113968417200e-01  0.0
 -1.500000060000e-01  -9.228572545400e-02  0.0
 -1.600000054000e-01  -9.949207751600e-02  0.0
 -1.700000048000e-01  -1.066984295780e-01  0.0
 -1.800000042000e-01  -1.139047816400e-01  0.0
 -1.500000060000e-01  -1.020000174360e-01  0.0
 -1.600000054000e-01  -1.092063694980e-01  0.0
 -1.700000048000e-01  -1.164127215600e-01  0.0
 -1.500000060000e-01  -1.117143094180e-01  0.0
 -1.600000054000e-01  -1.189206614800e-01  0.0
 -1.500000060000e-01  -1.214286014000e-01  0.0
  1.832975030000e+00  -4.625000060000e-02  0.0
  1.841380024000e+00  -7.700000108000e-02  0.0
  1.849785018000e+00  -1.077500015600e-01  0.0
  1.858190012000e+00  -1.385000020400e-01  0.0
  1.866595006000e+00  -1.692500025200e-01  0.0
  1.875000000000e+00  -2.000000030000e-01  0.0
  1.866380024000e+00  -5.649999976400e-02  0.0
  1.874785018000e+00  -8.725000024400e-02  0.0
  1.883190012000e+00  -1.180000007240e-01  0.0
  1.891595006000e+00  -1.487500012040e-01  0.0
  1.900000000000e+00  -1.795000016840e-01  0.0
  1.899785018000e+00  -6.674999892800e-02  0.0
  1.908190012000e+00  -9.749999940800e-02  0.0
  1.916595006000e+00  -1.282499998880e-01  0.0
  1.925000000000e+00  -1.590000003680e-01  0.0
  1.933190012000e+00  -7.699999809200e-02  0.0
  1.941595006000e+00  -1.077499985720e-01  0.0
  1.950000000000e+00  -1.384999990520e-01  0.0
  1.966595006000e+00  -8.724999725600e-02  0.0
  1.975000000000e+00  -1.179999977360e-01  0.0
  2.000000000000e+00  -9.749999642000e-02  0.0
 -1.500000060000e-01  -1.700000018000e-01  0.0
 -1.444000050800e-01  -1.630000025200e-01  0.0
 -1.388000041600e-01  -1.560000032400e-01  0.0
 -1.332000032400e-01  -1.490000039600e-01  0.0
 -1.276000023200e-01  -1.420000046800e-01  0.0
 -1.220000014000e-01  -1.350000054000e-01  0.0
 -1.500000060000e-01  -1.602857217200e-01  0.0
 -1.444000050800e-01  -1.532857224400e-01  0.0
 -1.388000041600e-01  -1.462857231600e-01  0.0
 -1.332000032400e-01  -1.392857238800e-01  0.0
 -1.276000023200e-01  -1.322857246000e-01  0.0
 -1.500000060000e-01  -1.505714416400e-01  0.0
 -1.444000050800e-01  -1.435714423600e-01  0.0
 -1.388000041600e-01  -1.365714430800e-01  0.0
 -1.332000032400e-01  -1.295714438000e-01  0.0
 -1.500000060000e-01  -1.408571615600e-01  0.0
 -1.444000050800e-01  -1.338571622800e-01  0.0
 -1.388000041600e-01  -1.268571630000e-01  0.0
 -1.500000060000e-01  -1.311428814800e-01  0.0
 -1.444000050800e-01  -1.241428822000e-01  0.0
 -1.500000060000e-01  -1.214286014000e-01  0.0
  2.849999964000e-01  -2.333333530000e-02  0.0
  2.844999968800e-01  -4.666666836000e-02  0.0
  2.839999973600e-01  -7.000000142000e-02  0.0
  2.834999978400e-01  -9.333333448000e-02  0.0
  2.829999983200e-01  -1.166666675400e-01  0.0
  2.824999988000e-01  -1.400000006000e-01  0.0
  2.979999959200e-01  -3.266666830000e-02  0.0
  2.974999964000e-01  -5.600000136000e-02  0.0
  2.969999968800e-01  -7.933333442000e-02  0.0
  2.964999973600e-01  -1.026666674800e-01  0.0
  2.959999978400e-01  -1.260000005400e-01  0.0
  3.109999954400e-01  -4.200000130000e-02  0.0
  3.104999959200e-01  -6.533333436000e-02  0.0
  3.099999964000e-01  -8.866666742000e-02  0.0
  3.094999968800e-01  -1.120000004800e-01  0.0
  3.239999949600e-01  -5.133333430000e-02  0.0
  3.234999954400e-01  -7.466666736000e-02  0.0
  3.229999959200e-01  -9.800000042000e-02  0.0
  3.369999944800e-01  -6.066666730000e-02  0.0
  3.364999949600e-01  -8.400000036000e-02  0.0
  3.499999940000e-01  -7.000000030000e-02  0.0
 -1.071429029000e-01  -1.700000018000e-01  0.0
 -9.857146590000e-02  -1.700000018000e-01  0.0
 -9.000002890000e-02  -1.700000018000e-01  0.0
 -8.142859190000e-02  -1.700000018000e-01  0.0
 -7.285715490000e-02  -1.700000018000e-01  0.0
 -6.428571790000e-02  -1.700000018000e-01  0.0
 -1.037143230360e-01  -1.630000025200e-01  0.0
 -9.514288603600e-02  -1.630000025200e-01  0.0
 -8.657144903600e-02  -1.630000025200e-01  0.0
 -7.800001203600e-02  -1.630000025200e-01  0.0
 -6.942857503600e-02  -1.630000025200e-01  0.0
 -1.002857431720e-01  -1.560000032400e-01  0.0
 -9.171430617200e-02  -1.560000032400e-01  0.0
 -8.314286917200e-02  -1.560000032400e-01  0.0
 -7.457143217200e-02  -1.560000032400e-01  0.0
 -9.685716330800e-02  -1.490000039600e-01  0.0
 -8.828572630800e-02  -1.490000039600e-01  0.0
 -7.971428930800e-02  -1.490000039600e-01  0.0
 -9.342858344400e-02  -1.420000046800e-01  0.0
 -8.485714644400e-02  -1.420000046800e-01  0.0
 -9.000000358000e-02  -1.350000054000e-01  0.0
 -1.312499940000e-01  -2.000000030000e-01  0.0
 -1.264285757800e-01  -1.940000027600e-01  0.0
 -1.216071575600e-01  -1.880000025200e-01  0.0
 -1.167857393400e-01  -1.820000022800e-01  0.0
 -1.119643211200e-01  -1.760000020400e-01  0.0
 -1.071429029000e-01  -1.700000018000e-01  0.0
 -1.349999964000e-01  -1.940000027600e-01  0.0
 -1.301785781800e-01  -1.880000025200e-01  0.0
 -1.253571599600e-01  -1.820000022800e-01  0.0
 -1.205357417400e-01  -1.760000020400e-01  0.0
 -1.157143235200e-01  -1.700000018000e-01  0.0
 -1.387499988000e-01  -1.880000025200e-01  0.0
 -1.339285805800e-01  -1.820000022800e-01  0.0
 -1.291071623600e-01  -1.760000020400e-01  0.0
 -1.242857441400e-01  -1.700000018000e-01  0.0
 -1.425000012000e-01  -1.820000022800e-01  0.0
 -1.376785829800e-01  -1.760000020400e-01  0.0
 -1.328571647600e-01  -1.700000018000e-01  0.0
 -1.462500036000e-01  -1.760000020400e-01  0.0
 -1.414285853800e-01  -1.700000018000e-01  0.0
 -1.500000060000e-01  -1.700000018000e-01  0.0
[...]
POINT_DATA 7854
SCALARS field1 double 1
LOOKUP_TABLE default
 -3.877078749292e-06 
  1.452112620982e-02 
  1.750526851589e-02 
  1.827532292886e-02 
  2.032293073468e-02 
  2.395934864836e-02 
 -3.335213678315e-06 
  1.198014929653e-02 
  1.439536234685e-02 
  1.606704094479e-02 
  1.964189766765e-02 
  2.068542978986e-06 
  9.135987479688e-03 
  1.164430041751e-02 
  1.509569415675e-02 
  7.694553574742e-06 
  6.520074063969e-03 
  1.030659298834e-02 
 -2.984810784153e-06 
  5.268245336152e-03 
  2.442169161964e-06 
  4.628231531509e-02 
  4.447994906230e-02 
  4.119895647462e-02 
  3.471258507134e-02 
  2.223132193221e-02 
 -5.903783817278e-07 
  4.528130708229e-02 
  4.199969466771e-02 
  3.544914500069e-02 
  2.274273312009e-02 
 -2.131730779453e-07 
  4.274808784331e-02 
  3.613754790014e-02 
  2.322539575334e-02 
 -2.453803006553e-07 
  3.678032785843e-02 
  2.367723312367e-02 
 -2.387288392476e-07 
  2.409671904688e-02 
 -1.301494765446e-07 
 -3.573837853470e-07 
  2.396047157701e-02 
  2.759976689096e-02 
  3.144955359082e-02 
  3.475500584402e-02 
  3.740671375306e-02 
  3.954967977869e-02 
  2.803263535605e-02 
  3.123856254380e-02 
  3.444825894662e-02 
  3.718071187863e-02 
  3.936024256275e-02 
  3.186616783363e-02 
  3.467811203728e-02 
  3.731781717421e-02 
  3.950363526590e-02 
  3.545911116405e-02 
  3.791374651972e-02 
  4.002585538199e-02 
  3.881255479667e-02 
  4.093124770520e-02 
  4.192858261026e-02 
  3.954879647700e-02 
  3.740681729148e-02 
  3.475401313841e-02 
  3.144999342694e-02 
  2.759939412748e-02 
  2.396249772565e-02 
  3.785447136038e-02 
  3.527818391857e-02 
  3.209075500360e-02 
  2.813699103770e-02 
  2.357484025714e-02 
  3.613267044793e-02 
  3.315347433837e-02 
  2.943361833439e-02 
  2.479092325438e-02 
  3.447519971921e-02 
  3.111602654635e-02 
  2.685909809285e-02 
  3.294925295591e-02 
  2.919208366894e-02 
  3.144844368684e-02 
  4.618362949934e-02 
  4.624859764901e-02 
  4.593745907698e-02 
  4.518447911215e-02 
  4.388917368987e-02 
  4.192982477400e-02 
  4.518738950048e-02 
  4.478325776325e-02 
  4.397976528885e-02 
  4.271203023399e-02 
  4.093080214318e-02 
  4.399799934675e-02 
  4.314343286384e-02 
  4.183496228544e-02 
  4.002525620149e-02 
  4.264883469621e-02 
  4.133454467330e-02 
  3.950355671363e-02 
  4.115603067801e-02 
  3.936073389470e-02 
  3.954799962746e-02 
  4.722959175712e-02 
  3.903767244159e-02 
  4.024452238928e-02 
  4.065623539842e-02 
  4.392782869657e-02 
  4.898986685899e-04 
  4.184259182623e-02 
  4.195562674908e-02 
  4.097134348205e-02 
  4.116718857236e-02 
  3.876431247245e-02 
  4.169981959598e-02 
  4.203151959724e-02 
  4.075676800061e-02 
  4.157945301532e-02 
  4.160291199631e-02 
  4.136476750550e-02 
  4.017303927764e-02 
  4.209639243277e-02 
  3.998121028541e-02 
  4.331320396792e-02 
  3.144872193227e-02 
  3.385051302397e-02 
  3.589402143375e-02 
  3.769318916347e-02 
  3.929835423971e-02 
  4.071364900258e-02 
  3.294812510701e-02 
  3.514974528381e-02 
  3.709003817519e-02 
  3.879845861180e-02 
  4.029653019366e-02 
  3.447508006268e-02 
  3.656374034443e-02 
  3.838121808670e-02 
  3.995208040104e-02 
  3.613255281246e-02 
  3.805786736246e-02 
  3.970486204773e-02 
  3.785318236798e-02 
  3.956120366520e-02 
  3.954865862973e-02 
  4.245226354237e-02 
  4.130829024848e-02 
  4.183563927758e-02 
  4.195392331802e-02 
  4.196917134063e-02 
  4.354955747039e-02 
  4.163523928496e-02 
  4.163335461810e-02 
  4.189911526677e-02 
  4.186306547286e-02 
  4.204693164950e-02 
  4.169433906923e-02 
  4.184441235299e-02 
  4.190951032049e-02 
  4.183347626569e-02 
  4.205554464584e-02 
  4.191040017351e-02 
  4.187997296689e-02 
  4.203359285162e-02 
  4.200591821117e-02 
  4.155396270612e-02 
  4.032268066289e-02 
  4.168865975757e-02 
  4.295514372405e-02 
  4.414247379577e-02 
  4.525035543986e-02 
  4.628482986155e-02 
  4.143291984815e-02 
  4.272624731419e-02 
  4.394774106933e-02 
  4.509916503304e-02 
  4.618131655868e-02 
  4.233096661301e-02 
  4.356015570587e-02 
  4.473643030772e-02 
  4.586192676194e-02 
  4.317746229493e-02 
  4.435207003552e-02 
  4.549763652387e-02 
  4.399711921998e-02 
  4.513511454017e-02 
  4.479791831671e-02 
  2.145259122767e-07 
  1.887758303606e-02 
  2.968720038370e-02 
  3.547478405013e-02 
  3.854294981372e-02 
  4.032299547010e-02 
  1.784668937536e-02 
  2.822246770702e-02 
  3.389689835688e-02 
  3.699254509906e-02 
  3.887100702626e-02 
  2.657317868386e-02 
  3.214192566106e-02 
  3.529197962489e-02 
  3.728072576583e-02 
  3.016504411768e-02 
  3.340088643153e-02 
  3.553731822584e-02 
  3.127325314087e-02 
  3.360646854632e-02 
  3.144832110249e-02 
  4.071633875466e-02 
  4.152720296990e-02 
  4.233406792324e-02 
  4.314747363317e-02 
  4.396515351597e-02 
  4.479731792912e-02 
  4.150575373965e-02 
  4.222144456795e-02 
  4.295557952174e-02 
  4.371192370377e-02 
  4.449134414567e-02 
  4.222436590188e-02 
  4.285612786017e-02 
  4.352200269600e-02 
  4.422766011139e-02 
  4.286290968208e-02 
  4.341321798591e-02 
  4.401618197798e-02 
  4.340375434820e-02 
  4.387461607584e-02 
  4.381829072694e-02 
  4.479709276118e-02 
  4.396531106133e-02 
  4.314744781819e-02 
  4.233414509319e-02 
  4.152723017097e-02 
  4.071661429719e-02 
  4.399756422151e-02 
  4.314156462990e-02 
  4.227712889759e-02 
  4.140245381933e-02 
  4.051323712219e-02 
  4.317731772359e-02 
  4.227586575143e-02 
  4.135187563600e-02 
  4.040198970323e-02 
  4.233122208351e-02 
  4.137519299523e-02 
  4.038163636520e-02 
  4.143305146033e-02 
  4.041412297288e-02 
  4.032347385309e-02 
  4.735701180232e-02 
  4.637085148479e-02 
  4.556494246030e-02 
  4.489436540432e-02 
  4.432448182972e-02 
  4.381841104287e-02 
  4.712625993115e-02 
  4.614954091107e-02 
  4.530339893689e-02 
  4.455389372413e-02 
  4.387454370763e-02 
  4.670329562444e-02 
  4.572980465620e-02 
  4.484185507069e-02 
  4.401615736920e-02 
  4.614676546661e-02 
  4.516333209189e-02 
  4.422762841649e-02 
  4.549891636870e-02 
  4.449123482864e-02 
  4.479774925384e-02 
  4.071547777518e-02 
  4.150580199592e-02 
  4.222430658039e-02 
  4.286287288837e-02 
  4.340392753308e-02 
  4.381795679957e-02 
  4.029618587235e-02 
  4.115944516977e-02 
  4.194611814388e-02 
  4.264004140617e-02 
  4.322364170551e-02 
  3.995231833914e-02 
  4.090272859387e-02 
  4.176424010465e-02 
  4.252220078830e-02 
  3.970421866771e-02 
  4.074761237213e-02 
  4.169203135450e-02 
  3.956122718693e-02 
  4.070739996466e-02 
  3.954771817216e-02 
  4.735657960375e-02 
  4.712624977492e-02 
  4.670325095259e-02 
  4.614680838036e-02 
  4.549875677945e-02 
  4.479865447937e-02 
  4.817574490402e-02 
  4.776884027945e-02 
  4.722609503084e-02 
  4.659589566325e-02 
  4.591009872116e-02 
  4.896340568676e-02 
  4.838844874227e-02 
  4.773478702734e-02 
  4.704029971259e-02 
  4.969023415378e-02 
  4.896469595591e-02 
  4.821603540609e-02 
  5.033903898655e-02 
  4.948337385933e-02 
  5.089179282336e-02 
  4.032338286503e-02 
  4.041449669781e-02 
  4.038190086212e-02 
  4.040203832673e-02 
  4.051321170138e-02 
  4.071556505335e-02 
  3.887125964800e-02 
  3.896739656642e-02 
  3.898239727630e-02 
  3.908104706092e-02 
  3.929812455735e-02 
  3.728086751630e-02 
  3.740802034989e-02 
  3.749146744351e-02 
  3.769332910959e-02 
  3.553753212204e-02 
  3.571084774777e-02 
  3.589344954359e-02 
  3.360660888114e-02 
  3.385026044204e-02 
  3.144850357919e-02 
 -8.572671168048e-08 
 -2.242709141087e-07 
 -1.532860956283e-07 
 -2.698681633959e-07 
 -2.129789776856e-07 
 -8.835859347490e-07 
  2.633943742554e-02 
  2.626884272189e-02 
  2.606643911607e-02 
  2.576008428572e-02 
  2.538421404419e-02 
  4.025166275759e-02 
  4.011259044510e-02 
  3.977226966887e-02 
  3.928155574946e-02 
  4.684046347787e-02 
  4.662384272495e-02 
  4.618595108464e-02 
  4.965646704275e-02 
  4.935238447217e-02 
  5.077620690512e-02 
  4.618259130543e-02 
  4.518609325851e-02 
  4.399770274881e-02 
  4.264930328736e-02 
  4.115627594130e-02 
  3.954774657846e-02 
  4.515767897023e-02 
  4.427492845623e-02 
  4.323105976697e-02 
  4.203550786483e-02 
  4.070730197031e-02 
  4.441940338785e-02 
  4.366156281150e-02 
  4.274588445468e-02 
  4.169215560856e-02 
  4.395706213942e-02 
  4.331767700768e-02 
  4.252237193789e-02 
  4.376965200534e-02 
  4.322365158841e-02 
  4.381762691060e-02 
  5.390708764033e-02 
  5.275502650716e-02 
  5.087845961941e-02 
  4.902737018435e-02 
  4.745147160902e-02 
  4.618465717709e-02 
  5.448420215907e-02 
  5.244795172515e-02 
  5.037626759975e-02 
  4.855480731197e-02 
  4.700432165625e-02 
  5.378396228132e-02 
  5.150595813444e-02 
  4.945299578885e-02 
  4.765981937603e-02 
  5.244157429387e-02 
  5.017693800901e-02 
  4.815987320992e-02 
  5.075119995446e-02 
  4.853106092160e-02 
  4.880584377705e-02 
  5.390722499563e-02 
  5.198973611402e-02 
  4.983390092929e-02 
  4.743943405308e-02 
  4.480430325904e-02 
  4.192856620067e-02 
  5.275512328515e-02 
  5.088099652441e-02 
  4.877560997060e-02 
  4.644679648692e-02 
  4.388891250566e-02 
  5.087918240447e-02 
  4.918599141401e-02 
  4.728146474795e-02 
  4.518382800003e-02 
  4.902675650612e-02 
  4.757607194304e-02 
  4.593863654740e-02 
  4.745088770600e-02 
  4.624867236754e-02 
  4.618548369355e-02 
  5.390712640063e-02 
  5.448351520476e-02 
  5.378341566316e-02 
  5.244186051171e-02 
  5.075147239785e-02 
  4.880589748669e-02 
  5.558505711852e-02 
  5.587608623569e-02 
  5.481909002019e-02 
  5.313765504018e-02 
  5.116441401057e-02 
  5.702209299654e-02 
  5.704379409892e-02 
  5.566233987595e-02 
  5.367617558684e-02 
  5.821898663629e-02 
  5.798538013140e-02 
  5.630754798427e-02 
  5.917763935016e-02 
  5.870091847372e-02 
  5.989537993461e-02 
  4.880616913775e-02 
  4.853012651166e-02 
  4.815955774745e-02 
  4.766047128341e-02 
  4.700523656660e-02 
  4.618208463121e-02 
  4.682986108022e-02 
  4.673459375531e-02 
  4.657791317605e-02 
  4.631325356321e-02 
  4.589726343232e-02 
  4.495881282447e-02 
  4.509231142317e-02 
  4.518536656848e-02 
  4.517808288241e-02 
  4.316963295759e-02 
  4.359683579643e-02 
  4.399308439457e-02 
  4.146420928801e-02 
  4.226288347948e-02 
  3.986359159403e-02 
  3.846712240709e-02 
  4.088820623133e-02 
  4.311697245448e-02 
  4.516087140629e-02 
  4.704722288885e-02 
  4.880607722738e-02 
  3.829671866903e-02 
  4.081986917032e-02 
  4.304910323030e-02 
  4.504018191157e-02 
  4.682975469516e-02 
  3.837616471166e-02 
  4.090256264113e-02 
  4.307142424684e-02 
  4.495868021617e-02 
  3.868343421518e-02 
  4.112467043455e-02 
  4.316983482162e-02 
  3.919091862337e-02 
  4.146422678645e-02 
  3.986382940374e-02 
  4.880699534697e-02 
  4.898922723432e-02 
  4.913131802981e-02 
  4.921733451780e-02 
  4.925724390397e-02 
  4.925830289100e-02 
  5.116434177796e-02 
  5.148196238468e-02 
  5.167632176482e-02 
  5.175859645949e-02 
  5.173818793153e-02 
  5.367704544466e-02 
  5.408544561233e-02 
  5.431958522384e-02 
  5.438873667324e-02 
  5.630702225877e-02 
  5.677844496538e-02 
  5.703493690642e-02 
  5.870116210410e-02 
  5.920663729453e-02 
  5.989401698353e-02 
  4.618057197789e-02 
  4.536344699815e-02 
  4.464397938830e-02 
  4.404492286908e-02 
  4.359532638438e-02 
  4.338962648187e-02 
  4.589762334735e-02 
  4.489383761865e-02 
  4.398390251501e-02 
  4.317960885690e-02 
  4.254010338290e-02 
  4.517774770295e-02 
  4.396030497373e-02 
  4.279889693563e-02 
  4.171473577036e-02 
  4.399290554887e-02 
  4.248357967656e-02 
  4.096020918756e-02 
  4.226282463935e-02 
  4.032968794133e-02 
  3.986405170132e-02 
  4.407166807602e-02 
  4.221462937717e-02 
  4.157036204844e-02 
  4.169400625644e-02 
  4.256684167821e-02 
  4.344452104134e-02 
  4.180331919054e-02 
  4.191076040846e-02 
  4.194459616832e-02 
  4.252712938505e-02 
  4.352721048032e-02 
  4.174207778670e-02 
  4.149806679589e-02 
  4.130632234257e-02 
  4.086482380148e-02 
  4.123914005173e-02 
  4.177914090875e-02 
  4.096396883795e-02 
  3.463649801474e-02 
  3.961546512638e-02 
  2.269747715513e-04 
  3.776095017352e-02 
  3.962643213364e-02 
  4.099207500803e-02 
  4.202533518457e-02 
  4.280402975128e-02 
  4.339372135208e-02 
  3.968687164234e-02 
  4.112623482447e-02 
  4.216486332860e-02 
  4.293852920399e-02 
  4.350246330090e-02 
  4.175160874442e-02 
  4.273251589490e-02 
  4.341613379542e-02 
  4.390995931827e-02 
  4.388901683431e-02 
  4.439389228830e-02 
  4.470815949119e-02 
  4.602535364771e-02 
  4.605569107073e-02 
  4.809071325668e-02 
  4.338934517158e-02 
  4.359536189380e-02 
  4.404483651874e-02 
  4.464418431385e-02 
  4.536341453919e-02 
  4.618104319495e-02 
  4.403678945044e-02 
  4.404593632581e-02 
  4.427427125203e-02 
  4.465711639026e-02 
  4.515754155246e-02 
  4.436467150334e-02 
  4.420249081071e-02 
  4.424040750292e-02 
  4.441886095601e-02 
  4.441186680502e-02 
  4.410213196070e-02 
  4.395739028132e-02 
  4.422272491095e-02 
  4.376948950475e-02 
  4.381826536093e-02 
  1.565858531215e-02 
  1.923956672067e-02 
  2.235324025074e-02 
  2.505074236182e-02 
  2.740072088967e-02 
  2.947416095315e-02 
  1.707462717839e-02 
  2.053421767617e-02 
  2.351452422799e-02 
  2.607783140735e-02 
  2.828780522696e-02 
  1.887568928570e-02 
  2.222037613381e-02 
  2.501259291080e-02 
  2.738420842200e-02 
  2.110499976015e-02 
  2.426454312645e-02 
  2.681646927814e-02 
  2.375642993367e-02 
  2.663353521561e-02 
  2.675799177988e-02 
  2.947141394103e-02 
  3.230754091437e-02 
  3.466991783993e-02 
  3.666030960630e-02 
  3.836932003159e-02 
  3.986541167047e-02 
  3.057712820865e-02 
  3.319747682428e-02 
  3.536253498112e-02 
  3.719087563054e-02 
  3.875740458014e-02 
  3.203271682832e-02 
  3.433639040456e-02 
  3.624590541673e-02 
  3.786817297706e-02 
  3.377098872493e-02 
  3.568897690750e-02 
  3.729159985799e-02 
  3.570679053618e-02 
  3.720066233862e-02 
  3.776246283724e-02 
  3.775920368880e-02 
  3.651121561786e-02 
  3.492297650309e-02 
  3.291520420887e-02 
  3.028173646888e-02 
  2.675869044619e-02 
  3.570599945399e-02 
  3.410120593827e-02 
  3.214288044590e-02 
  2.970920788252e-02 
  2.663356065158e-02 
  3.377092946886e-02 
  3.186926186836e-02 
  2.958453513697e-02 
  2.681632943294e-02 
  3.203241993539e-02 
  2.990513837008e-02 
  2.738395626094e-02 
  3.057645005350e-02 
  2.828798333332e-02 
  2.947379435837e-02 
  2.947047630334e-02 
  3.067306077099e-02 
  3.240053502098e-02 
  3.437707530968e-02 
  3.643103735927e-02 
  3.846663326943e-02 
  3.230782842693e-02 
  3.333260311278e-02 
  3.479349775607e-02 
  3.649469304889e-02 
  3.829650152362e-02 
  3.466999711231e-02 
  3.557853456677e-02 
  3.686577706925e-02 
  3.837576241244e-02 
  3.666010615932e-02 
  3.750885012138e-02 
  3.868327492236e-02 
  3.836947962041e-02 
  3.919104170897e-02 
  3.986415087161e-02 
  4.735693763133e-02 
  4.774137181943e-02 
  4.804451269789e-02 
  4.825003220298e-02 
  4.831032288254e-02 
  4.809153594986e-02 
  4.661779818975e-02 
  4.676380093187e-02 
  4.675751155152e-02 
  4.654887995225e-02 
  4.605555599407e-02 
  4.581460811043e-02 
  4.569910562399e-02 
  4.535612051937e-02 
  4.470838432088e-02 
  4.498302553431e-02 
  4.459561406274e-02 
  4.390977605356e-02 
  4.415993374837e-02 
  4.350256371536e-02 
  4.339310315871e-02 
  3.776372430140e-02 
  3.720034062297e-02 
  3.729189909818e-02 
  3.786805645428e-02 
  3.875753041208e-02 
  3.986496573778e-02 
  3.962603661454e-02 
  3.909186904212e-02 
  3.912971730835e-02 
  3.958047398339e-02 
  4.033037775907e-02 
  4.099244452627e-02 
  4.054893083198e-02 
  4.057442174271e-02 
  4.096093209078e-02 
  4.202518735698e-02 
  4.167341418439e-02 
  4.171555907477e-02 
  4.280427473455e-02 
  4.254046977365e-02 
  4.339172269291e-02 
  4.735750563159e-02 
  4.661751684817e-02 
  4.581432019972e-02 
  4.498246944575e-02 
  4.415957002304e-02 
  4.339071802277e-02 
  4.637081191051e-02 
  4.579020900856e-02 
  4.518964507637e-02 
  4.459467237393e-02 
  4.403661809254e-02 
  4.556508806341e-02 
  4.514646600821e-02 
  4.473944718837e-02 
  4.436481584619e-02 
  4.489426794351e-02 
  4.463598003540e-02 
  4.441184048186e-02 
  4.432461337537e-02 
  4.422312822278e-02 
  4.381796638105e-02 
  2.947246192552e-02 
  2.740120248392e-02 
  2.505053641037e-02 
  2.235290806978e-02 
  1.923960502519e-02 
  1.565956339292e-02 
  2.808441533677e-02 
  2.583425471248e-02 
  2.326819925225e-02 
  2.034091754563e-02 
  1.701924273816e-02 
  2.703678845554e-02 
  2.466368252281e-02 
  2.197603223253e-02 
  1.893652653679e-02 
  2.636987231239e-02 
  2.395706412855e-02 
  2.125069908480e-02 
  2.611110478465e-02 
  2.374439139446e-02 
  2.625127247138e-02 
  5.089277213452e-02 
  4.948338742013e-02 
  4.821634776203e-02 
  4.704018545321e-02 
  4.591028286338e-02 
  4.479815494626e-02 
  4.984430986735e-02 
  4.858963575172e-02 
  4.740688843936e-02 
  4.626444976054e-02 
  4.513549385952e-02 
  4.887070747932e-02 
  4.772094836164e-02 
  4.660394785122e-02 
  4.549759653422e-02 
  4.800064468176e-02 
  4.693691469387e-02 
  4.586239015559e-02 
  4.724426890244e-02 
  4.618136629517e-02 
  4.628822049499e-02 
  4.725262373131e-02 
  4.173607440866e-02 
  4.166982567223e-02 
  4.158875587313e-02 
  4.204820151470e-02 
  4.345748996637e-02 
  4.260104082047e-02 
  4.164616828781e-02 
  4.176761532253e-02 
  4.180361835828e-02 
  4.220291913317e-02 
  4.163351934604e-02 
  4.193290842759e-02 
  4.181899110858e-02 
  4.223544238810e-02 
  4.141789311067e-02 
  4.156685305596e-02 
  4.376151954311e-02 
  4.225604910590e-02 
  4.390674315788e-02 
  4.360663308402e-02 
  5.343544724782e-02 
  5.255880320654e-02 
  5.182335103691e-02 
  5.122325331882e-02 
  5.072393166150e-02 
  5.003972616268e-02 
  5.387457923077e-02 
  5.292569298186e-02 
  5.213740606024e-02 
  5.150700955152e-02 
  5.097439762491e-02 
  5.421001836690e-02 
  5.319854538189e-02 
  5.237429896188e-02 
  5.172065462511e-02 
  5.442873042606e-02 
  5.337541650033e-02 
  5.253107860055e-02 
  5.453007133894e-02 
  5.345593228376e-02 
  5.451389062564e-02 
  5.343482748424e-02 
  5.313044174623e-02 
  5.271887479820e-02 
  5.220159854694e-02 
  5.158626658107e-02 
  5.089176824771e-02 
  5.172041372380e-02 
  5.136039981500e-02 
  5.092344497234e-02 
  5.041635032192e-02 
  4.984435950114e-02 
  5.024901334189e-02 
  4.983846130377e-02 
  4.937740018823e-02 
  4.887050589875e-02 
  4.894823050858e-02 
  4.849583862209e-02 
  4.800069083660e-02 
  4.771904107011e-02 
  4.724398360765e-02 
  4.628918911299e-02 
  4.735645109162e-02 
  4.849891055208e-02 
  4.993669968093e-02 
  5.179985010115e-02 
  5.423499477149e-02 
  5.738650602736e-02 
  4.774114272623e-02 
  4.900049054004e-02 
  5.066101661394e-02 
  5.288702677576e-02 
  5.582162926350e-02 
  4.804414911231e-02 
  4.946722324667e-02 
  5.142077374610e-02 
  5.407064306744e-02 
  4.824981391202e-02 
  4.988014635468e-02 
  5.216441633053e-02 
  4.831039111727e-02 
  5.015189595669e-02 
  4.809017371966e-02 
  5.738675414519e-02 
  5.423505433758e-02 
  5.179995069047e-02 
  4.993675826263e-02 
  4.849898759353e-02 
  4.735633405608e-02 
  5.577472939888e-02 
  5.318291562429e-02 
  5.113282074724e-02 
  4.950239823359e-02 
  4.817533181389e-02 
  5.432297358540e-02 
  5.217937394078e-02 
  5.042302527933e-02 
  4.896300187367e-02 
  5.304490954770e-02 
  5.123336032079e-02 
  4.968962337229e-02 
  5.191013421812e-02 
  5.033831709088e-02 
  5.089034457343e-02 
  6.356476885619e-02 
  6.280585447222e-02 
  6.178988817020e-02 
  6.052863556545e-02 
  5.904546810626e-02 
  5.738907834556e-02 
  5.992852677243e-02 
  5.913550653028e-02 
  5.815994673373e-02 
  5.702825872317e-02 
  5.577449734083e-02 
  5.694071936490e-02 
  5.617382466555e-02 
  5.529436298575e-02 
  5.432329904219e-02 
  5.452480474448e-02 
  5.381947538460e-02 
  5.304462302673e-02 
  5.255104346283e-02 
  5.191007644002e-02 
  5.088907348209e-02 
  5.595174846586e-02 
  5.552365101831e-02 
  5.382033741958e-02 