# vtk DataFile Version 2
NuDG++ 2D simulation
ASCII
DATASET UNSTRUCTURED_GRID

POINTS 7854 double
 -1.656250060000e-01  -2.000000030000e-01  0.0
 -1.725000054000e-01  -1.908888817000e-01  0.0
 -1.793750048000e-01  -1.817777604000e-01  0.0
 -1.862500042000e-01  -1.726666391000e-01  0.0
 -1.931250036000e-01  -1.635555178000e-01  0.0
 -2.000000030000e-01  -1.544443965000e-01  0.0
 -1.725000054000e-01  -2.000000030000e-01  0.0
 -1.793750048000e-01  -1.908888817000e-01  0.0
 -1.862500042000e-01  -1.817777604000e-01  0.0
 -1.931250036000e-01  -1.726666391000e-01  0.0
 -2.000000030000e-01  -1.635555178000e-01  0.0
 -1.793750048000e-01  -2.000000030000e-01  0.0
 -1.862500042000e-01  -1.908888817000e-01  0.0
 -1.931250036000e-01  -1.817777604000e-01  0.0
 -2.000000030000e-01  -1.726666391000e-01  0.0
 -1.862500042000e-01  -2.000000030000e-01  0.0
 -1.931250036000e-01  -1.908888817000e-01  0.0
 -2.000000030000e-01  -1.817777604000e-01  0.0
 -1.931250036000e-01  -2.000000030000e-01  0.0
 -2.000000030000e-01  -1.908888817000e-01  0.0
 -2.000000030000e-01  -2.000000030000e-01  0.0
 -6.428571790000e-02  -1.700000018000e-01  0.0
 -7.080357372400e-02  -1.760000020400e-01  0.0
 -7.732142954800e-02  -1.820000022800e-01  0.0
 -8.383928537200e-02  -1.880000025200e-01  0.0
 -9.035714119600e-02  -1.940000027600e-01  0.0
 -9.687499702000e-02  -2.000000030000e-01  0.0
 -6.392857432000e-02  -1.760000020400e-01  0.0
 -7.044643014400e-02  -1.820000022800e-01  0.0
 -7.696428596800e-02  -1.880000025200e-01  0.0
 -8.348214179200e-02  -1.940000027600e-01  0.0
 -8.999999761600e-02  -2.000000030000e-01  0.0
 -6.357143074000e-02  -1.820000022800e-01  0.0
 -7.008928656400e-02  -1.880000025200e-01  0.0
 -7.660714238800e-02  -1.940000027600e-01  0.0
 -8.312499821200e-02  -2.000000030000e-01  0.0
 -6.321428716000e-02  -1.880000025200e-01  0.0
 -6.973214298400e-02  -1.940000027600e-01  0.0
 -7.624999880800e-02  -2.000000030000e-01  0.0
 -6.285714358000e-02  -1.940000027600e-01  0.0
 -6.937499940400e-02  -2.000000030000e-01  0.0
 -6.250000000000e-02  -2.000000030000e-01  0.0
 -2.000000030000e-01  -1.544443965000e-01  0.0
 -1.900000036000e-01  -1.478412374800e-01  0.0
 -1.800000042000e-01  -1.412380784600e-01  0.0
 -1.700000048000e-01  -1.346349194400e-01  0.0
 -1.600000054000e-01  -1.280317604200e-01  0.0
 -1.500000060000e-01  -1.214286014000e-01  0.0
 -2.000000030000e-01  -1.453332975600e-01  0.0
 -1.900000036000e-01  -1.387301385400e-01  0.0
 -1.800000042000e-01  -1.321269795200e-01  0.0
 -1.700000048000e-01  -1.255238205000e-01  0.0
 -1.600000054000e-01  -1.189206614800e-01  0.0
 -2.000000030000e-01  -1.362221986200e-01  0.0
 -1.900000036000e-01  -1.296190396000e-01  0.0
 -1.800000042000e-01  -1.230158805800e-01  0.0
 -1.700000048000e-01  -1.164127215600e-01  0.0
 -2.000000030000e-01  -1.271110996800e-01  0.0
 -1.900000036000e-01  -1.205079406600e-01  0.0
 -1.800000042000e-01  -1.139047816400e-01  0.0
 -2.000000030000e-01  -1.180000007400e-01  0.0
 -1.900000036000e-01  -1.113968417200e-01  0.0
 -2.000000030000e-01  -1.088889018000e-01  0.0
 -1.500000060000e-01  -1.214286014000e-01  0.0
 -1.600000054000e-01  -1.280317604200e-01  0.0
 -1.700000048000e-01  -1.346349194400e-01  0.0
 -1.800000042000e-01  -1.412380784600e-01  0.0
 -1.900000036000e-01  -1.478412374800e-01  0.0
 -2.000000030000e-01  -1.544443965000e-01  0.0
 -1.500000060000e-01  -1.311428814800e-01  0.0
 -1.600000054000e-01  -1.377460405000e-01  0.0
 -1.700000048000e-01  -1.443491995200e-01  0.0
 -1.800000042000e-01  -1.509523585400e-01  0.0
 -1.900000036000e-01  -1.575555175600e-01  0.0
 -1.500000060000e-01  -1.408571615600e-01  0.0
 -1.600000054000e-01  -1.474603205800e-01  0.0
 -1.700000048000e-01  -1.540634796000e-01  0.0
 -1.800000042000e-01  -1.606666386200e-01  0.0
 -1.500000060000e-01  -1.505714416400e-01  0.0
 -1.600000054000e-01  -1.571746006600e-01  0.0
 -1.700000048000e-01  -1.637777596800e-01  0.0
 -1.500000060000e-01  -1.602857217200e-01  0.0
 -1.600000054000e-01  -1.668888807400e-01  0.0
 -1.500000060000e-01  -1.700000018000e-01  0.0
 -1.500000060000e-01  -7.285714149000e-02  0.0
 -1.600000054000e-01  -8.006349355200e-02  0.0
 -1.700000048000e-01  -8.726984561400e-02  0.0
 -1.800000042000e-01  -9.447619767600e-02  0.0
 -1.900000036000e-01  -1.016825497380e-01  0.0
 -2.000000030000e-01  -1.088889018000e-01  0.0
 -1.500000060000e-01  -8.257143347200e-02  0.0
 -1.600000054000e-01  -8.977778553400e-02  0.0
 -1.700000048000e-01  -9.698413759600e-02  0.0
 -1.800000042000e-01  -1.041904896580e-01  0.0
 -1.900000036000e-01  -1.113968417200e-01  0.0
 -1.500000060000e-01  -9.228572545400e-02  0.0
 -1.600000054000e-01  -9.949207751600e-02  0.0
 -1.700000048000e-01  -1.066984295780e-01  0.0
 -1.800000042000e-01  -1.139047816400e-01  0.0
 -1.500000060000e-01  -1.020000174360e-01  0.0
 -1.600000054000e-01  -1.092063694980e-01  0.0
 -1.700000048000e-01  -1.164127215600e-01  0.0
 -1.500000060000e-01  -1.117143094180e-01  0.0
 -1.600000054000e-01  -1.189206614800e-01  0.0
 -1.500000060000e-01  -1.214286014000e-01  0.0
  1.832975030000e+00  -4.625000060000e-02  0.0
  1.841380024000e+00  -7.700000108000e-02  0.0
  1.849785018000e+00  -1.077500015600e-01  0.0
  1.858190012000e+00  -1.385000020400e-01  0.0
  1.866595006000e+00  -1.692500025200e-01  0.0
  1.875000000000e+00  -2.000000030000e-01  0.0
  1.866380024000e+00  -5.649999976400e-02  0.0
  1.874785018000e+00  -8.725000024400e-02  0.0
  1.883190012000e+00  -1.180000007240e-01  0.0
  1.891595006000e+00  -1.487500012040e-01  0.0
  1.900000000000e+00  -1.795000016840e-01  0.0
  1.899785018000e+00  -6.674999892800e-02  0.0
  1.908190012000e+00  -9.749999940800e-02  0.0
  1.916595006000e+00  -1.282499998880e-01  0.0
  1.925000000000e+00  -1.590000003680e-01  0.0
  1.933190012000e+00  -7.699999809200e-02  0.0
  1.941595006000e+00  -1.077499985720e-01  0.0
  1.950000000000e+00  -1.384999990520e-01  0.0
  1.966595006000e+00  -8.724999725600e-02  0.0
  1.975000000000e+00  -1.179999977360e-01  0.0
  2.000000000000e+00  -9.749999642000e-02  0.0
 -1.500000060000e-01  -1.700000018000e-01  0.0
 -1.444000050800e-01  -1.630000025200e-01  0.0
 -1.388000041600e-01  -1.560000032400e-01  0.0
 -1.332000032400e-01  -1.490000039600e-01  0.0
 -1.276000023200e-01  -1.420000046800e-01  0.0
 -1.220000014000e-01  -1.350000054000e-01  0.0
 -1.500000060000e-01  -1.602857217200e-01  0.0
 -1.444000050800e-01  -1.532857224400e-01  0.0
 -1.388000041600e-01  -1.462857231600e-01  0.0
 -1.332000032400e-01  -1.392857238800e-01  0.0
 -1.276000023200e-01  -1.322857246000e-01  0.0
 -1.500000060000e-01  -1.505714416400e-01  0.0
 -1.444000050800e-01  -1.435714423600e-01  0.0
 -1.388000041600e-01  -1.365714430800e-01  0.0
 -1.332000032400e-01  -1.295714438000e-01  0.0
 -1.500000060000e-01  -1.408571615600e-01  0.0
 -1.444000050800e-01  -1.338571622800e-01  0.0
 -1.388000041600e-01  -1.268571630000e-01  0.0
 -1.500000060000e-01  -1.311428814800e-01  0.0
 -1.444000050800e-01  -1.241428822000e-01  0.0
 -1.500000060000e-01  -1.214286014000e-01  0.0
  2.849999964000e-01  -2.333333530000e-02  0.0
  2.844999968800e-01  -4.666666836000e-02  0.0
  2.839999973600e-01  -7.000000142000e-02  0.0
  2.834999978400e-01  -9.333333448000e-02  0.0
  2.829999983200e-01  -1.166666675400e-01  0.0
  2.824999988000e-01  -1.400000006000e-01  0.0
  2.979999959200e-01  -3.266666830000e-02  0.0
  2.974999964000e-01  -5.600000136000e-02  0.0
  2.969999968800e-01  -7.933333442000e-02  0.0
  2.964999973600e-01  -1.026666674800e-01  0.0
  2.959999978400e-01  -1.260000005400e-01  0.0
  3.109999954400e-01  -4.200000130000e-02  0.0
  3.104999959200e-01  -6.533333436000e-02  0.0
  3.099999964000e-01  -8.866666742000e-02  0.0
  3.094999968800e-01  -1.120000004800e-01  0.0
  3.239999949600e-01  -5.133333430000e-02  0.0
  3.234999954400e-01  -7.466666736000e-02  0.0
  3.229999959200e-01  -9.800000042000e-02  0.0
  3.369999944800e-01  -6.066666730000e-02  0.0
  3.364999949600e-01  -8.400000036000e-02  0.0
  3.499999940000e-01  -7.000000030000e-02  0.0
 -1.071429029000e-01  -1.700000018000e-01  0.0
 -9.857146590000e-02  -1.700000018000e-01  0.0
 -9.000002890000e-02  -1.700000018000e-01  0.0
 -8.142859190000e-02  -1.700000018000e-01  0.0
 -7.285715490000e-02  -1.700000018000e-01  0.0
 -6.428571790000e-02  -1.700000018000e-01  0.0
 -1.037143230360e-01  -1.630000025200e-01  0.0
 -9.514288603600e-02  -1.630000025200e-01  0.0
 -8.657144903600e-02  -1.630000025200e-01  0.0
 -7.800001203600e-02  -1.630000025200e-01  0.0
 -6.942857503600e-02  -1.630000025200e-01  0.0
 -1.002857431720e-01  -1.560000032400e-01  0.0
 -9.171430617200e-02  -1.560000032400e-01  0.0
 -8.314286917200e-02  -1.560000032400e-01  0.0
 -7.457143217200e-02  -1.560000032400e-01  0.0
 -9.685716330800e-02  -1.490000039600e-01  0.0
 -8.828572630800e-02  -1.490000039600e-01  0.0
 -7.971428930800e-02  -1.490000039600e-01  0.0
 -9.342858344400e-02  -1.420000046800e-01  0.0
 -8.485714644400e-02  -1.420000046800e-01  0.0
 -9.000000358000e-02  -1.350000054000e-01  0.0
 -1.312499940000e-01  -2.000000030000e-01  0.0
 -1.264285757800e-01  -1.940000027600e-01  0.0
 -1.216071575600e-01  -1.880000025200e-01  0.0
 -1.167857393400e-01  -1.820000022800e-01  0.0
 -1.119643211200e-01  -1.760000020400e-01  0.0
 -1.071429029000e-01  -1.700000018000e-01  0.0
 -1.349999964000e-01  -1.940000027600e-01  0.0
 -1.301785781800e-01  -1.880000025200e-01  0.0
 -1.253571599600e-01  -1.820000022800e-01  0.0
 -1.205357417400e-01  -1.760000020400e-01  0.0
 -1.157143235200e-01  -1.700000018000e-01  0.0
 -1.387499988000e-01  -1.880000025200e-01  0.0
 -1.339285805800e-01  -1.820000022800e-01  0.0
 -1.291071623600e-01  -1.760000020400e-01  0.0
 -1.242857441400e-01  -1.700000018000e-01  0.0
 -1.425000012000e-01  -1.820000022800e-01  0.0
 -1.376785829800e-01  -1.760000020400e-01  0.0
 -1.328571647600e-01  -1.700000018000e-01  0.0
 -1.462500036000e-01  -1.760000020400e-01  0.0
 -1.414285853800e-01  -1.700000018000e-01  0.0
 -1.500000060000e-01  -1.700000018000e-01  0.0
[...]
POINT_DATA 7854
SCALARS field1 double 1
LOOKUP_TABLE default
  1.069979598526e-05 
  6.676134606148e-03 
  6.770701321499e-03 
  6.633606666370e-03 
  7.250967874933e-03 
  8.413556803891e-03 
 -3.294928756156e-06 
  5.618309807449e-03 
  5.586136008152e-03 
  5.733890160770e-03 
  6.886453916103e-03 
 -8.540180527838e-07 
  4.273356380934e-03 
  4.360765969224e-03 
  5.297653525606e-03 
  1.806403045886e-05 
  2.734684666075e-03 
  3.619926791467e-03 
 -8.612236503776e-07 
  1.839964246191e-03 
  5.496680711130e-06 
  1.577728136816e-02 
  1.547310535801e-02 
  1.505416595535e-02 
  1.404965924840e-02 
  1.051510062169e-02 
 -1.383297456900e-06 
  1.573516891190e-02 
  1.532446560302e-02 
  1.432838282487e-02 
  1.074182467801e-02 
 -5.952422450776e-07 
  1.557813250825e-02 
  1.458611578174e-02 
  1.095543391526e-02 
 -6.065697085250e-07 
  1.482725462054e-02 
  1.115517370823e-02 
 -6.530792589339e-07 
  1.133924896320e-02 
 -5.134732035861e-07 
 -7.455003976430e-07 
  8.400165152043e-03 
  9.780553918914e-03 
  1.109962585542e-02 
  1.215194520949e-02 
  1.300943696768e-02 
  1.371295885022e-02 
  9.823685608808e-03 
  1.100047074074e-02 
  1.211331172816e-02 
  1.298373092647e-02 
  1.371043960904e-02 
  1.117180253903e-02 
  1.218215357729e-02 
  1.305509601350e-02 
  1.378559958897e-02 
  1.243220010989e-02 
  1.327183809783e-02 
  1.396825231803e-02 
  1.361070461960e-02 
  1.430907418004e-02 
  1.469781016935e-02 
  1.371537465580e-02 
  1.300990490689e-02 
  1.215450371186e-02 
  1.109780180939e-02 
  9.783019401615e-03 
  8.400081307033e-03 
  1.309693922770e-02 
  1.230881723848e-02 
  1.129575911722e-02 
  9.988328542602e-03 
  8.388707948326e-03 
  1.253988511565e-02 
  1.161120627785e-02 
  1.040932412328e-02 
  8.906009511202e-03 
  1.200051536746e-02 
  1.091984142192e-02 
  9.557115273932e-03 
  1.148487031079e-02 
  1.028258490912e-02 
  1.104371845058e-02 
  1.600270222212e-02 
  1.598798925249e-02 
  1.591633558487e-02 
  1.570725182122e-02 
  1.533614268775e-02 
  1.469983774392e-02 
  1.559547109370e-02 
  1.551326890474e-02 
  1.527873387402e-02 
  1.488027425514e-02 
  1.430847458297e-02 
  1.521731963064e-02 
  1.497830919092e-02 
  1.455397381870e-02 
  1.396997400932e-02 
  1.481233906700e-02 
  1.438188549449e-02 
  1.378328578867e-02 
  1.432763871718e-02 
  1.370963312297e-02 
  1.371386657362e-02 
  1.623221885880e-02 
  1.373025446574e-02 
  1.424821561897e-02 
  1.348754420009e-02 
  1.527636218642e-02 
  9.039968739523e-04 
  1.437824351774e-02 
  1.444673086181e-02 
  1.405194466889e-02 
  1.372571566578e-02 
  1.404484092101e-02 
  1.441429719951e-02 
  1.438356860866e-02 
  1.393199637538e-02 
  1.392742247859e-02 
  1.431760481243e-02 
  1.420941382435e-02 
  1.393661868232e-02 
  1.458289294919e-02 
  1.363161980083e-02 
  1.553607013434e-02 
  1.104140264782e-02 
  1.176185279894e-02 
  1.242504177722e-02 
  1.300698867636e-02 
  1.353588181260e-02 
  1.404231037386e-02 
  1.148562414233e-02 
  1.220279032446e-02 
  1.283128508045e-02 
  1.340043882157e-02 
  1.389853614471e-02 
  1.200167744799e-02 
  1.267657918021e-02 
  1.327567934002e-02 
  1.380887882199e-02 
  1.254174643999e-02 
  1.318095711531e-02 
  1.373363355135e-02 
  1.310010794067e-02 
  1.370531404457e-02 
  1.371623773381e-02 
  1.462168045263e-02 
  1.428906481446e-02 
  1.440944365263e-02 
  1.453353284551e-02 
  1.443450410623e-02 
  1.554280939157e-02 
  1.440548887732e-02 
  1.434297603109e-02 
  1.445458599964e-02 
  1.447123405814e-02 
  1.456398956438e-02 
  1.439864154591e-02 
  1.440919787353e-02 
  1.446120151358e-02 
  1.445795222032e-02 
  1.441866200418e-02 
  1.444388903098e-02 
  1.440518462485e-02 
  1.439113720185e-02 
  1.451412443030e-02 
  1.417821875081e-02 
  1.389217011908e-02 
  1.432301175725e-02 
  1.472812666032e-02 
  1.510617400165e-02 
  1.545710039791e-02 
  1.578061434439e-02 
  1.417268296757e-02 
  1.458138908937e-02 
  1.496421327502e-02 
  1.533012735794e-02 
  1.567234756479e-02 
  1.445398008308e-02 
  1.484015596213e-02 
  1.520844972514e-02 
  1.556414772332e-02 
  1.473304006915e-02 
  1.510109090773e-02 
  1.545894697314e-02 
  1.500689254779e-02 
  1.536315444996e-02 
  1.527654906845e-02 
 -5.619802143811e-06 
  9.005957392906e-03 
  1.211833380290e-02 
  1.307681166412e-02 
  1.352875655654e-02 
  1.389510444584e-02 
  8.538561628726e-03 
  1.154926462691e-02 
  1.253344739568e-02 
  1.302365313878e-02 
  1.341803731246e-02 
  1.090566725407e-02 
  1.192167121568e-02 
  1.246449224300e-02 
  1.290667211489e-02 
  1.122351497165e-02 
  1.184133611193e-02 
  1.234493147951e-02 
  1.113848013619e-02 
  1.172509454220e-02 
  1.103597147564e-02 
  1.403605721396e-02 
  1.426978740665e-02 
  1.451733010326e-02 
  1.476561510440e-02 
  1.501960428557e-02 
  1.527560775452e-02 
  1.428678996034e-02 
  1.450537623365e-02 
  1.473152694233e-02 
  1.496375320833e-02 
  1.520329420215e-02 
  1.453219342413e-02 
  1.472307308732e-02 
  1.492712570520e-02 
  1.514377529079e-02 
  1.475349098546e-02 
  1.491771894502e-02 
  1.509943969079e-02 
  1.493989348735e-02 
  1.508170890217e-02 
  1.508959197598e-02 
  1.527581901445e-02 
  1.501958515253e-02 
  1.476577775249e-02 
  1.451713534729e-02 
  1.426993502947e-02 
  1.403599851779e-02 
  1.500657584672e-02 
  1.474140943427e-02 
  1.447193070127e-02 
  1.420076105186e-02 
  1.391875368011e-02 
  1.473251178806e-02 
  1.445220154026e-02 
  1.416258490064e-02 
  1.386345191851e-02 
  1.445365802110e-02 
  1.415483744607e-02 
  1.384112254627e-02 
  1.417220960246e-02 
  1.384877008642e-02 
  1.389334584337e-02 
  1.617034127039e-02 
  1.586651480390e-02 
  1.562185383426e-02 
  1.541999550394e-02 
  1.524711759390e-02 
  1.508949163632e-02 
  1.607897157370e-02 
  1.578069090624e-02 
  1.552128216086e-02 
  1.529103905417e-02 
  1.508161364989e-02 
  1.593127493466e-02 
  1.563054435357e-02 
  1.535657155491e-02 
  1.509966783036e-02 
  1.573966088078e-02 
  1.543512401225e-02 
  1.514392631288e-02 
  1.551887181972e-02 
  1.520331271380e-02 
  1.527649526208e-02 
  1.403818520213e-02 
  1.428712683083e-02 
  1.453235288044e-02 
  1.475396187763e-02 
  1.493982918113e-02 
  1.508942856735e-02 
  1.389978989854e-02 
  1.419626916176e-02 
  1.445953719438e-02 
  1.469448518319e-02 
  1.489782691666e-02 
  1.380786142727e-02 
  1.412583444061e-02 
  1.441947974189e-02 
  1.467363360534e-02 
  1.373450953744e-02 
  1.409238498087e-02 
  1.442002088558e-02 
  1.370519614692e-02 
  1.410655226969e-02 
  1.371782764930e-02 
  1.617007355992e-02 
  1.607910417746e-02 
  1.593122631697e-02 
  1.573965815921e-02 
  1.551860419829e-02 
  1.527754870008e-02 
  1.640780337453e-02 
  1.626577620714e-02 
  1.607942309350e-02 
  1.586567272725e-02 
  1.563348705324e-02 
  1.663885083609e-02 
  1.644485469405e-02 
  1.622481859639e-02 
  1.599143426815e-02 
  1.685241273796e-02 
  1.661138190422e-02 
  1.636155334944e-02 
  1.704255125205e-02 
  1.676001575247e-02 
  1.720158503724e-02 
  1.389431399287e-02 
  1.384854379900e-02 
  1.384124834636e-02 
  1.386370885962e-02 
  1.391792713567e-02 
  1.403898092199e-02 
  1.341816696592e-02 
  1.338773140505e-02 
  1.339507532042e-02 
  1.344455251083e-02 
  1.353675406693e-02 
  1.290633435865e-02 
  1.288907269263e-02 
  1.292475071502e-02 
  1.300752843932e-02 
  1.234526205831e-02 
  1.235246608023e-02 
  1.242498337627e-02 
  1.172453660002e-02 
  1.176232974529e-02 
  1.103873049480e-02 
 -5.775959861649e-07 
 -6.507300924376e-07 
 -5.920718376534e-07 
 -7.297331370383e-07 
 -6.656811150884e-07 
 -1.625328496331e-06 
  1.234665785878e-02 
  1.232810643841e-02 
  1.225937237509e-02 
  1.214652192447e-02 
  1.200249892454e-02 
  1.615456783299e-02 
  1.611817561090e-02 
  1.601488885776e-02 
  1.585418245284e-02 
  1.698582910293e-02 
  1.692738508237e-02 
  1.680430422595e-02 
  1.716292159010e-02 
  1.707961314092e-02 
  1.721588742799e-02 
  1.599984700117e-02 
  1.559705266144e-02 
  1.521767592961e-02 
  1.481148827291e-02 
  1.432528395907e-02 
  1.371700201880e-02 
  1.562044458529e-02 
  1.531217226892e-02 
  1.496893454779e-02 
  1.457280937513e-02 
  1.410691879697e-02 
  1.536687980978e-02 
  1.510274257141e-02 
  1.478647112293e-02 
  1.441998259670e-02 
  1.520945682435e-02 
  1.496306210105e-02 
  1.467309307640e-02 
  1.511251039429e-02 
  1.489803824017e-02 
  1.508883675230e-02 
  1.890830778142e-02 
  1.834412176692e-02 
  1.761412349500e-02 
  1.698043217555e-02 
  1.643477043332e-02 
  1.599875285873e-02 
  1.895245580085e-02 
  1.814406803329e-02 
  1.741683050468e-02 
  1.682642972287e-02 
  1.634227569269e-02 
  1.858830452991e-02 
  1.779944092247e-02 
  1.711468341765e-02 
  1.654243132882e-02 
  1.810671082447e-02 
  1.734891437166e-02 
  1.666532151879e-02 
  1.752800909258e-02 
  1.678409957474e-02 
  1.694943424627e-02 
  1.890244142606e-02 
  1.823125088210e-02 
  1.747433734563e-02 
  1.663208145916e-02 
  1.570684612858e-02 
  1.469947890359e-02 
  1.834503077092e-02 
  1.771407665401e-02 
  1.699678767434e-02 
  1.620665989207e-02 
  1.533713833763e-02 
  1.761117628159e-02 
  1.703211381645e-02 
  1.640695089638e-02 
  1.570815649477e-02 
  1.698392691988e-02 
  1.647815361371e-02 
  1.591567105842e-02 
  1.643359454919e-02 
  1.598642008579e-02 
  1.600546996616e-02 
  1.890323188348e-02 
  1.895449564730e-02 
  1.858807404588e-02 
  1.810706617698e-02 
  1.752624560622e-02 
  1.695518123237e-02 
  1.948813073233e-02 
  1.943084896334e-02 
  1.892431645298e-02 
  1.835156227929e-02 
  1.769447075093e-02 
  1.999262928757e-02 
  1.981906970024e-02 
  1.919855293939e-02 
  1.854585745385e-02 
  2.041458643691e-02 
  2.014375371790e-02 
  1.942824805549e-02 
  2.075154146957e-02 
  2.037517199116e-02 
  2.100427854618e-02 
  1.694365575686e-02 
  1.678384177377e-02 
  1.666431110591e-02 
  1.654063901891e-02 
  1.633852642939e-02 
  1.599785973719e-02 
  1.627595384543e-02 
  1.621773081757e-02 
  1.615470608078e-02 
  1.607027432684e-02 
  1.592114809471e-02 
  1.566219791436e-02 
  1.568490301775e-02 
  1.569658911280e-02 
  1.568081008217e-02 
  1.508177132682e-02 
  1.519136883051e-02 
  1.528859127300e-02 
  1.452897776473e-02 
  1.475568369503e-02 
  1.398643465655e-02 
  1.357364926360e-02 
  1.437302035536e-02 
  1.508214119400e-02 
  1.574967335255e-02 
  1.635975715101e-02 
  1.694164523430e-02 
  1.355106950475e-02 
  1.434841636135e-02 
  1.506381040651e-02 
  1.570085541978e-02 
  1.627619000132e-02 
  1.357050848085e-02 
  1.437281215704e-02 
  1.506357225436e-02 
  1.566180513428e-02 
  1.365935539898e-02 
  1.443673832790e-02 
  1.508203151423e-02 
  1.380842160959e-02 
  1.452852078181e-02 
  1.398905844898e-02 
  1.694505270507e-02 
  1.703073772496e-02 
  1.705733804957e-02 
  1.706307998791e-02 
  1.707631298812e-02 
  1.710148130009e-02 
  1.769630893454e-02 
  1.781920685530e-02 
  1.787220067323e-02 
  1.790058137929e-02 
  1.787756318967e-02 
  1.854190607808e-02 
  1.865983977262e-02 
  1.873965361706e-02 
  1.877000353558e-02 
  1.943191130994e-02 
  1.959184786873e-02 
  1.967385305975e-02 
  2.037344110079e-02 
  2.055686750843e-02 
  2.101357966206e-02 
  1.599711668125e-02 
  1.571568276217e-02 
  1.546742256785e-02 
  1.525963976654e-02 
  1.510208782042e-02 
  1.502220811710e-02 
  1.592102118727e-02 
  1.556949264644e-02 
  1.526043825410e-02 
  1.499301611736e-02 
  1.477685736700e-02 
  1.568047226893e-02 
  1.527039266166e-02 
  1.488847751102e-02 
  1.454055975465e-02 
  1.528935238770e-02 
  1.480393050825e-02 
  1.432206446717e-02 
  1.475528309974e-02 
  1.413795940569e-02 
  1.398913095000e-02 
  1.537558804256e-02 
  1.469537113717e-02 
  1.455203579113e-02 
  1.451661698280e-02 
  1.460698075697e-02 
  1.522148609442e-02 
  1.430659186336e-02 
  1.454667021734e-02 
  1.452674801721e-02 
  1.458149491157e-02 
  1.448397559123e-02 
  1.443676092071e-02 
  1.428208710301e-02 
  1.430034738129e-02 
  1.402835666253e-02 
  1.433932859930e-02 
  1.430732792211e-02 
  1.427523399435e-02 
  1.361036724264e-02 
  1.469538399522e-02 
  5.001033427779e-04 
  1.330225622638e-02 
  1.386845474181e-02 
  1.428529329124e-02 
  1.460234156578e-02 
  1.484226922867e-02 
  1.502459641440e-02 
  1.389925155502e-02 
  1.432365696236e-02 
  1.463849873538e-02 
  1.487535644133e-02 
  1.504772612236e-02 
  1.453544264458e-02 
  1.481237079430e-02 
  1.501615384132e-02 
  1.516603084920e-02 
  1.518989389143e-02 
  1.531776545569e-02 
  1.540648902742e-02 
  1.584161214908e-02 
  1.582336403990e-02 
  1.646904086412e-02 
  1.502162331027e-02 
  1.510217946282e-02 
  1.525950224685e-02 
  1.546742283920e-02 
  1.571539224327e-02 
  1.599788746230e-02 
  1.521476354657e-02 
  1.523217867208e-02 
  1.532428306630e-02 
  1.545763677360e-02 
  1.562073016654e-02 
  1.530360353992e-02 
  1.527486197783e-02 
  1.530278567272e-02 
  1.536638428949e-02 
  1.530804629998e-02 
  1.523436435066e-02 
  1.520859767204e-02 
  1.523939814719e-02 
  1.511215336413e-02 
  1.508910033064e-02 
  6.380957475520e-03 
  7.555503028410e-03 
  8.537904889017e-03 
  9.377734010161e-03 
  1.010666642795e-02 
  1.075788446795e-02 
  6.922107122958e-03 
  8.008797781426e-03 
  8.923374450059e-03 
  9.707716655883e-03 
  1.038432851811e-02 
  7.593086309625e-03 
  8.597319722546e-03 
  9.419761043446e-03 
  1.012605641923e-02 
  8.416109771591e-03 
  9.303903699002e-03 
  1.001420739872e-02 
  9.382601044411e-03 
  1.011358680485e-02 
  1.045084909292e-02 
  1.075737263140e-02 
  1.163430557997e-02 
  1.237302748775e-02 
  1.299535975120e-02 
  1.353250969993e-02 
  1.399330067350e-02 
  1.109196639471e-02 
  1.190434941451e-02 
  1.257970077762e-02 
  1.315138259137e-02 
  1.364493921043e-02 
  1.154211685062e-02 
  1.225197755549e-02 
  1.284672997254e-02 
  1.335412255747e-02 
  1.208012297016e-02 
  1.266584306765e-02 
  1.316446347449e-02 
  1.267548142709e-02 
  1.312853042259e-02 
  1.330300433411e-02 
  1.330119343351e-02 
  1.294407889830e-02 
  1.250176008483e-02 
  1.197784903128e-02 
  1.132649498929e-02 
  1.045100384610e-02 
  1.267473320289e-02 
  1.219812795623e-02 
  1.163451800118e-02 
  1.095505688799e-02 
  1.011363339158e-02 
  1.207990303068e-02 
  1.150519423709e-02 
  1.082574480956e-02 
  1.001409901380e-02 
  1.154172341369e-02 
  1.089178316372e-02 
  1.012596764074e-02 
  1.109142644237e-02 
  1.038439544153e-02 
  1.075788482843e-02 
  1.075789315490e-02 
  1.113327853923e-02 
  1.168305245248e-02 
  1.230723635408e-02 
  1.296120962111e-02 
  1.357797518368e-02 
  1.163448097438e-02 
  1.196691741347e-02 
  1.243301854593e-02 
  1.297628005921e-02 
  1.355084627032e-02 
  1.237332585499e-02 
  1.267033056897e-02 
  1.308586719485e-02 
  1.357063191577e-02 
  1.299519308574e-02 
  1.327780703503e-02 
  1.365962833704e-02 
  1.353282830935e-02 
  1.380854208891e-02 
  1.399162305501e-02 
  1.616981721596e-02 
  1.629694143130e-02 
  1.639996509439e-02 
  1.647357543187e-02 
  1.650584800763e-02 
  1.646951064275e-02 
  1.595578337909e-02 
  1.601100853580e-02 
  1.601822800663e-02 
  1.596206090770e-02 
  1.582329309823e-02 
  1.572435333194e-02 
  1.569761788611e-02 
  1.559955863499e-02 
  1.540661216726e-02 
  1.548547207208e-02 
  1.537183557949e-02 
  1.516591093235e-02 
  1.524663166112e-02 
  1.504780571645e-02 
  1.502417217766e-02 
  1.330400703960e-02 
  1.312835840616e-02 
  1.316473168263e-02 
  1.335391243244e-02 
  1.364514041489e-02 
  1.399230284574e-02 
  1.386836445056e-02 
  1.371102465201e-02 
  1.373536648024e-02 
  1.388956175198e-02 
  1.413854965120e-02 
  1.428554762011e-02 
  1.416220875998e-02 
  1.418453361658e-02 
  1.432243107519e-02 
  1.460222318984e-02 
  1.450980044534e-02 
  1.454074498415e-02 
  1.484248180985e-02 
  1.477713405150e-02 
  1.502344025077e-02 
  1.617028605485e-02 
  1.595559335491e-02 
  1.572425842503e-02 
  1.548535340642e-02 
  1.524644109445e-02 
  1.502260218467e-02 
  1.586654035427e-02 
  1.570467548970e-02 
  1.553596705767e-02 
  1.536851933576e-02 
  1.521445448112e-02 
  1.562189522013e-02 
  1.551060695761e-02 
  1.540296874156e-02 
  1.530391243785e-02 
  1.542000085547e-02 
  1.535863207004e-02 
  1.530816005104e-02 
  1.524727606749e-02 
  1.523933506094e-02 
  1.508908484042e-02 
  1.075750865509e-02 
  1.010685203986e-02 
  9.377738222191e-03 
  8.537642537922e-03 
  7.555652019884e-03 
  6.381032375030e-03 
  1.032299579179e-02 
  9.617982561389e-03 
  8.812513330854e-03 
  7.881041734440e-03 
  6.800105283044e-03 
  9.998680756991e-03 
  9.251450807798e-03 
  8.400172817580e-03 
  7.419121983336e-03 
  9.792665407811e-03 
  9.029960834161e-03 
  8.168422334652e-03 
  9.713449091479e-03 
  8.964576836084e-03 
  9.753616723476e-03 
  1.720194237723e-02 
  1.675985464346e-02 
  1.636168771182e-02 
  1.599129118639e-02 
  1.563343987693e-02 
  1.527749454323e-02 
  1.685329543656e-02 
  1.645953450631e-02 
  1.608685851640e-02 
  1.572439647992e-02 
  1.536337114906e-02 
  1.653322994036e-02 
  1.616937423444e-02 
  1.581432745062e-02 
  1.545925626124e-02 
  1.624443760952e-02 
  1.590655741505e-02 
  1.556431093896e-02 
  1.599692828783e-02 
  1.567292962389e-02 
  1.578083586379e-02 
  1.606549089582e-02 
  1.434529566264e-02 
  1.436648956158e-02 
  1.430588844036e-02 
  1.451071252959e-02 
  1.562365128094e-02 
  1.429716212989e-02 
  1.410185217625e-02 
  1.414527967128e-02 
  1.413362982675e-02 
  1.435907181534e-02 
  1.414347721004e-02 
  1.416815975715e-02 
  1.418447913132e-02 
  1.429202902381e-02 
  1.414484263198e-02 
  1.407944496901e-02 
  1.410333254598e-02 
  1.419197987475e-02 
  1.449977049534e-02 
  1.436943150571e-02 
  1.795345196659e-02 
  1.766853571775e-02 
  1.742711458501e-02 
  1.723580149502e-02 
  1.708665895399e-02 
  1.696743096192e-02 
  1.808590587961e-02 
  1.777829741645e-02 
  1.752316018963e-02 
  1.732375480782e-02 
  1.716700014666e-02 
  1.818615142785e-02 
  1.786038215083e-02 
  1.759581312687e-02 
  1.738884321643e-02 
  1.825061241882e-02 
  1.791376105768e-02 
  1.764303403177e-02 
  1.828035454516e-02 
  1.793849300631e-02 
  1.827314977988e-02 
  1.795283758907e-02 
  1.786453802742e-02 
  1.774267911908e-02 
  1.758874639932e-02 
  1.740629095935e-02 
  1.720093388655e-02 
  1.741141296457e-02 
  1.730479226119e-02 
  1.717480400304e-02 
  1.702361805278e-02 
  1.685340505851e-02 
  1.694143465694e-02 
  1.682045990846e-02 
  1.668344737556e-02 
  1.653298562725e-02 
  1.652909301517e-02 
  1.639312395565e-02 
  1.624449310659e-02 
  1.614757250095e-02 
  1.599669695226e-02 
  1.578133831820e-02 
  1.616944076468e-02 
  1.652271887147e-02 
  1.696646223749e-02 
  1.754324983305e-02 
  1.830088422413e-02 
  1.930535923421e-02 
  1.629686510736e-02 
  1.668679255790e-02 
  1.720053621103e-02 
  1.789384573538e-02 
  1.883008815768e-02 
  1.639978278568e-02 
  1.684072075607e-02 
  1.744949413607e-02 
  1.830106575496e-02 
  1.647346853078e-02 
  1.698196395371e-02 
  1.772277128787e-02 
  1.650584299774e-02 
  1.710693114375e-02 
  1.646889634960e-02 
  1.930534494124e-02 
  1.830095302752e-02 
  1.754327622142e-02 
  1.696652387318e-02 
  1.652275420498e-02 
  1.616953798360e-02 
  1.876152677336e-02 
  1.795753135025e-02 
  1.732398840330e-02 
  1.681965022896e-02 
  1.640750606656e-02 
  1.829761521754e-02 
  1.763497566434e-02 
  1.709139389794e-02 
  1.663854355916e-02 
  1.789041081476e-02 
  1.733002135870e-02 
  1.685195301790e-02 
  1.752847355192e-02 
  1.704205021358e-02 
  1.720058463068e-02 
  2.116903042685e-02 
  2.094294355391e-02 
  2.064098729291e-02 
  2.026345195581e-02 
  1.981339062502e-02 
  1.930683212604e-02 
  2.001330635012e-02 
  1.977671850811e-02 
  1.948289086226e-02 
  1.914034416051e-02 
  1.876139699952e-02 
  1.908448574955e-02 
  1.885499692937e-02 
  1.859040967544e-02 
  1.829785578423e-02 
  1.833433451836e-02 
  1.812310441937e-02 
  1.789022632675e-02 
  1.772135595447e-02 
  1.752845797885e-02 
  1.719962202626e-02 
  2.118795850832e-02 
  1.998839459989e-02 
  1.879481245217e-02 