# vtk DataFile Version 2
NuDG++ 2D simulation
ASCII
DATASET UNSTRUCTURED_GRID

POINTS 7854 double
 -1.656250060000e-01  -2.000000030000e-01  0.0
 -1.725000054000e-01  -1.908888817000e-01  0.0
 -1.793750048000e-01  -1.817777604000e-01  0.0
 -1.862500042000e-01  -1.726666391000e-01  0.0
 -1.931250036000e-01  -1.635555178000e-01  0.0
 -2.000000030000e-01  -1.544443965000e-01  0.0
 -1.725000054000e-01  -2.000000030000e-01  0.0
 -1.793750048000e-01  -1.908888817000e-01  0.0
 -1.862500042000e-01  -1.817777604000e-01  0.0
 -1.931250036000e-01  -1.726666391000e-01  0.0
 -2.000000030000e-01  -1.635555178000e-01  0.0
 -1.793750048000e-01  -2.000000030000e-01  0.0
 -1.862500042000e-01  -1.908888817000e-01  0.0
 -1.931250036000e-01  -1.817777604000e-01  0.0
 -2.000000030000e-01  -1.726666391000e-01  0.0
 -1.862500042000e-01  -2.000000030000e-01  0.0
 -1.931250036000e-01  -1.908888817000e-01  0.0
 -2.000000030000e-01  -1.817777604000e-01  0.0
 -1.931250036000e-01  -2.000000030000e-01  0.0
 -2.000000030000e-01  -1.908888817000e-01  0.0
 -2.000000030000e-01  -2.000000030000e-01  0.0
 -6.428571790000e-02  -1.700000018000e-01  0.0
 -7.080357372400e-02  -1.760000020400e-01  0.0
 -7.732142954800e-02  -1.820000022800e-01  0.0
 -8.383928537200e-02  -1.880000025200e-01  0.0
 -9.035714119600e-02  -1.940000027600e-01  0.0
 -9.687499702000e-02  -2.000000030000e-01  0.0
 -6.392857432000e-02  -1.760000020400e-01  0.0
 -7.044643014400e-02  -1.820000022800e-01  0.0
 -7.696428596800e-02  -1.880000025200e-01  0.0
 -8.348214179200e-02  -1.940000027600e-01  0.0
 -8.999999761600e-02  -2.000000030000e-01  0.0
 -6.357143074000e-02  -1.820000022800e-01  0.0
 -7.008928656400e-02  -1.880000025200e-01  0.0
 -7.660714238800e-02  -1.940000027600e-01  0.0
 -8.312499821200e-02  -2.000000030000e-01  0.0
 -6.321428716000e-02  -1.880000025200e-01  0.0
 -6.973214298400e-02  -1.940000027600e-01  0.0
 -7.624999880800e-02  -2.000000030000e-01  0.0
 -6.285714358000e-02  -1.940000027600e-01  0.0
 -6.937499940400e-02  -2.000000030000e-01  0.0
 -6.250000000000e-02  -2.000000030000e-01  0.0
 -2.000000030000e-01  -1.544443965000e-01  0.0
 -1.900000036000e-01  -1.478412374800e-01  0.0
 -1.800000042000e-01  -1.412380784600e-01  0.0
 -1.700000048000e-01  -1.346349194400e-01  0.0
 -1.600000054000e-01  -1.280317604200e-01  0.0
 -1.500000060000e-01  -1.214286014000e-01  0.0
 -2.000000030000e-01  -1.453332975600e-01  0.0
 -1.900000036000e-01  -1.387301385400e-01  0.0
 -1.800000042000e-01  -1.321269795200e-01  0.0
 -1.700000048000e-01  -1.255238205000e-01  0.0
 -1.600000054000e-01  -1.189206614800e-01  0.0
 -2.000000030000e-01  -1.362221986200e-01  0.0
 -1.900000036000e-01  -1.296190396000e-01  0.0
 -1.800000042000e-01  -1.230158805800e-01  0.0
 -1.700000048000e-01  -1.164127215600e-01  0.0
 -2.000000030000e-01  -1.271110996800e-01  0.0
 -1.900000036000e-01  -1.205079406600e-01  0.0
 -1.800000042000e-01  -1.139047816400e-01  0.0
 -2.000000030000e-01  -1.180000007400e-01  0.0
 -1.900000036000e-01  -1.113968417200e-01  0.0
 -2.000000030000e-01  -1.088889018000e-01  0.0
 -1.500000060000e-01  -1.214286014000e-01  0.0
 -1.600000054000e-01  -1.280317604200e-01  0.0
 -1.700000048000e-01  -1.346349194400e-01  0.0
 -1.800000042000e-01  -1.412380784600e-01  0.0
 -1.900000036000e-01  -1.478412374800e-01  0.0
 -2.000000030000e-01  -1.544443965000e-01  0.0
 -1.500000060000e-01  -1.311428814800e-01  0.0
 -1.600000054000e-01  -1.377460405000e-01  0.0
 -1.700000048000e-01  -1.443491995200e-01  0.0
 -1.800000042000e-01  -1.509523585400e-01  0.0
 -1.900000036000e-01  -1.575555175600e-01  0.0
 -1.500000060000e-01  -1.408571615600e-01  0.0
 -1.600000054000e-01  -1.474603205800e-01  0.0
 -1.700000048000e-01  -1.540634796000e-01  0.0
 -1.800000042000e-01  -1.606666386200e-01  0.0
 -1.500000060000e-01  -1.505714416400e-01  0.0
 -1.600000054000e-01  -1.571746006600e-01  0.0
 -1.700000048000e-01  -1.637777596800e-01  0.0
 -1.500000060000e-01  -1.602857217200e-01  0.0
 -1.600000054000e-01  -1.668888807400e-01  0.0
 -1.500000060000e-01  -1.700000018000e-01  0.0
 -1.500000060000e-01  -7.285714149000e-02  0.0
 -1.600000054000e-01  -8.006349355200e-02  0.0
 -1.700000048000e-01  -8.726984561400e-02  0.0
 -1.800000042000e-01  -9.447619767600e-02  0.0
 -1.900000036000e-01  -1.016825497380e-01  0.0
 -2.000000030000e-01  -1.088889018000e-01  0.0
 -1.500000060000e-01  -8.257143347200e-02  0.0
 -1.600000054000e-01  -8.977778553400e-02  0.0
 -1.700000048000e-01  -9.698413759600e-02  0.0
 -1.800000042000e-01  -1.041904896580e-01  0.0
 -1.900000036000e-01  -1.113968417200e-01  0.0
 -1.500000060000e-01  -9.228572545400e-02  0.0
 -1.600000054000e-01  -9.949207751600e-02  0.0
 -1.700000048000e-01  -1.066984295780e-01  0.0
 -1.800000042000e-01  -1.139047816400e-01  0.0
 -1.500000060000e-01  -1.020000174360e-01  0.0
 -1.600000054000e-01  -1.092063694980e-01  0.0
 -1.700000048000e-01  -1.164127215600e-01  0.0
 -1.500000060000e-01  -1.117143094180e-01  0.0
 -1.600000054000e-01  -1.189206614800e-01  0.0
 -1.500000060000e-01  -1.214286014000e-01  0.0
  1.832975030000e+00  -4.625000060000e-02  0.0
  1.841380024000e+00  -7.700000108000e-02  0.0
  1.849785018000e+00  -1.077500015600e-01  0.0
  1.858190012000e+00  -1.385000020400e-01  0.0
  1.866595006000e+00  -1.692500025200e-01  0.0
  1.875000000000e+00  -2.000000030000e-01  0.0
  1.866380024000e+00  -5.649999976400e-02  0.0
  1.874785018000e+00  -8.725000024400e-02  0.0
  1.883190012000e+00  -1.180000007240e-01  0.0
  1.891595006000e+00  -1.487500012040e-01  0.0
  1.900000000000e+00  -1.795000016840e-01  0.0
  1.899785018000e+00  -6.674999892800e-02  0.0
  1.908190012000e+00  -9.749999940800e-02  0.0
  1.916595006000e+00  -1.282499998880e-01  0.0
  1.925000000000e+00  -1.590000003680e-01  0.0
  1.933190012000e+00  -7.699999809200e-02  0.0
  1.941595006000e+00  -1.077499985720e-01  0.0
  1.950000000000e+00  -1.384999990520e-01  0.0
  1.966595006000e+00  -8.724999725600e-02  0.0
  1.975000000000e+00  -1.179999977360e-01  0.0
  2.000000000000e+00  -9.749999642000e-02  0.0
 -1.500000060000e-01  -1.700000018000e-01  0.0
 -1.444000050800e-01  -1.630000025200e-01  0.0
 -1.388000041600e-01  -1.560000032400e-01  0.0
 -1.332000032400e-01  -1.490000039600e-01  0.0
 -1.276000023200e-01  -1.420000046800e-01  0.0
 -1.220000014000e-01  -1.350000054000e-01  0.0
 -1.500000060000e-01  -1.602857217200e-01  0.0
 -1.444000050800e-01  -1.532857224400e-01  0.0
 -1.388000041600e-01  -1.462857231600e-01  0.0
 -1.332000032400e-01  -1.392857238800e-01  0.0
 -1.276000023200e-01  -1.322857246000e-01  0.0
 -1.500000060000e-01  -1.505714416400e-01  0.0
 -1.444000050800e-01  -1.435714423600e-01  0.0
 -1.388000041600e-01  -1.365714430800e-01  0.0
 -1.332000032400e-01  -1.295714438000e-01  0.0
 -1.500000060000e-01  -1.408571615600e-01  0.0
 -1.444000050800e-01  -1.338571622800e-01  0.0
 -1.388000041600e-01  -1.268571630000e-01  0.0
 -1.500000060000e-01  -1.311428814800e-01  0.0
 -1.444000050800e-01  -1.241428822000e-01  0.0
 -1.500000060000e-01  -1.214286014000e-01  0.0
  2.849999964000e-01  -2.333333530000e-02  0.0
  2.844999968800e-01  -4.666666836000e-02  0.0
  2.839999973600e-01  -7.000000142000e-02  0.0
  2.834999978400e-01  -9.333333448000e-02  0.0
  2.829999983200e-01  -1.166666675400e-01  0.0
  2.824999988000e-01  -1.400000006000e-01  0.0
  2.979999959200e-01  -3.266666830000e-02  0.0
  2.974999964000e-01  -5.600000136000e-02  0.0
  2.969999968800e-01  -7.933333442000e-02  0.0
  2.964999973600e-01  -1.026666674800e-01  0.0
  2.959999978400e-01  -1.260000005400e-01  0.0
  3.109999954400e-01  -4.200000130000e-02  0.0
  3.104999959200e-01  -6.533333436000e-02  0.0
  3.099999964000e-01  -8.866666742000e-02  0.0
  3.094999968800e-01  -1.120000004800e-01  0.0
  3.239999949600e-01  -5.133333430000e-02  0.0
  3.234999954400e-01  -7.466666736000e-02  0.0
  3.229999959200e-01  -9.800000042000e-02  0.0
  3.369999944800e-01  -6.066666730000e-02  0.0
  3.364999949600e-01  -8.400000036000e-02  0.0
  3.499999940000e-01  -7.000000030000e-02  0.0
 -1.071429029000e-01  -1.700000018000e-01  0.0
 -9.857146590000e-02  -1.700000018000e-01  0.0
 -9.000002890000e-02  -1.700000018000e-01  0.0
 -8.142859190000e-02  -1.700000018000e-01  0.0
 -7.285715490000e-02  -1.700000018000e-01  0.0
 -6.428571790000e-02  -1.700000018000e-01  0.0
 -1.037143230360e-01  -1.630000025200e-01  0.0
 -9.514288603600e-02  -1.630000025200e-01  0.0
 -8.657144903600e-02  -1.630000025200e-01  0.0
 -7.800001203600e-02  -1.630000025200e-01  0.0
 -6.942857503600e-02  -1.630000025200e-01  0.0
 -1.002857431720e-01  -1.560000032400e-01  0.0
 -9.171430617200e-02  -1.560000032400e-01  0.0
 -8.314286917200e-02  -1.560000032400e-01  0.0
 -7.457143217200e-02  -1.560000032400e-01  0.0
 -9.685716330800e-02  -1.490000039600e-01  0.0
 -8.828572630800e-02  -1.490000039600e-01  0.0
 -7.971428930800e-02  -1.490000039600e-01  0.0
 -9.342858344400e-02  -1.420000046800e-01  0.0
 -8.485714644400e-02  -1.420000046800e-01  0.0
 -9.000000358000e-02  -1.350000054000e-01  0.0
 -1.312499940000e-01  -2.000000030000e-01  0.0
 -1.264285757800e-01  -1.940000027600e-01  0.0
 -1.216071575600e-01  -1.880000025200e-01  0.0
 -1.167857393400e-01  -1.820000022800e-01  0.0
 -1.119643211200e-01  -1.760000020400e-01  0.0
 -1.071429029000e-01  -1.700000018000e-01  0.0
 -1.349999964000e-01  -1.940000027600e-01  0.0
 -1.301785781800e-01  -1.880000025200e-01  0.0
 -1.253571599600e-01  -1.820000022800e-01  0.0
 -1.205357417400e-01  -1.760000020400e-01  0.0
 -1.157143235200e-01  -1.700000018000e-01  0.0
 -1.387499988000e-01  -1.880000025200e-01  0.0
 -1.339285805800e-01  -1.820000022800e-01  0.0
 -1.291071623600e-01  -1.760000020400e-01  0.0
 -1.242857441400e-01  -1.700000018000e-01  0.0
 -1.425000012000e-01  -1.820000022800e-01  0.0
 -1.376785829800e-01  -1.760000020400e-01  0.0
 -1.328571647600e-01  -1.700000018000e-01  0.0
 -1.462500036000e-01  -1.760000020400e-01  0.0
 -1.414285853800e-01  -1.700000018000e-01  0.0
 -1.500000060000e-01  -1.700000018000e-01  0.0
[...]
POINT_DATA 7854
SCALARS field1 double 1
LOOKUP_TABLE default
  5.221344446999e-06 
  8.597335268965e-03 
  9.200409593380e-03 
  9.110847082732e-03 
  9.964567085546e-03 
  1.162038021050e-02 
 -4.048431653060e-06 
  7.186196706306e-03 
  7.555259208224e-03 
  7.896687606517e-03 
  9.518522924733e-03 
  3.342370931996e-07 
  5.435199049015e-03 
  5.920811038923e-03 
  7.319703320251e-03 
  1.503665096864e-05 
  3.566895618168e-03 
  5.000028584131e-03 
 -1.793281624302e-06 
  2.548228627768e-03 
  4.585574625460e-06 
  2.200580275467e-02 
  2.152629428998e-02 
  2.075047976312e-02 
  1.881379716270e-02 
  1.335240275174e-02 
 -1.356292410915e-06 
  2.189564121118e-02 
  2.113064105149e-02 
  1.919455188443e-02 
  1.364402504246e-02 
 -4.723585745160e-07 
  2.148715568506e-02 
  1.954767513508e-02 
  1.391997162402e-02 
 -5.240570990187e-07 
  1.987787970416e-02 
  1.417785674099e-02 
 -5.301638395546e-07 
  1.441632106436e-02 
 -3.877468468651e-07 
 -6.521184048009e-07 
  1.161227431046e-02 
  1.347031744213e-02 
  1.532510073677e-02 
  1.682865114809e-02 
  1.803187802584e-02 
  1.901927633498e-02 
  1.358277861824e-02 
  1.518828018326e-02 
  1.673500002177e-02 
  1.797394615441e-02 
  1.898522366292e-02 
  1.544335589192e-02 
  1.683102402063e-02 
  1.806497174682e-02 
  1.907619693734e-02 
  1.718470916384e-02 
  1.836121025474e-02 
  1.933490453152e-02 
  1.881157618699e-02 
  1.980178158603e-02 
  2.031883839809e-02 
  1.902082320661e-02 
  1.803198675335e-02 
  1.682990296504e-02 
  1.532405562505e-02 
  1.347191119971e-02 
  1.161278212043e-02 
  1.818765574318e-02 
  1.704207032280e-02 
  1.560956957201e-02 
  1.377419112443e-02 
  1.155560790041e-02 
  1.739319203296e-02 
  1.606236283583e-02 
  1.437268519342e-02 
  1.223530946334e-02 
  1.662736900302e-02 
  1.510441128098e-02 
  1.317871645418e-02 
  1.591243558031e-02 
  1.422499867882e-02 
  1.529236601651e-02 
  2.218249382664e-02 
  2.218178047874e-02 
  2.207057292693e-02 
  2.176565169106e-02 
  2.121830857845e-02 
  2.032054689812e-02 
  2.165413197320e-02 
  2.150658207462e-02 
  2.116846811681e-02 
  2.060588540743e-02 
  1.980111332974e-02 
  2.111303668571e-02 
  2.075691146067e-02 
  2.016338909539e-02 
  1.933554922757e-02 
  2.051878494743e-02 
  1.992150601029e-02 
  1.907495937253e-02 
  1.982923483422e-02 
  1.898467362290e-02 
  1.901985985231e-02 
  2.255454814334e-02 
  1.911408147339e-02 
  1.971241909219e-02 
  1.889936606148e-02 
  2.120950934351e-02 
  8.149305752503e-04 
  1.995414862294e-02 
  2.012050347788e-02 
  1.955450125850e-02 
  1.921853192963e-02 
  1.934211970215e-02 
  1.998410297883e-02 
  2.003456331014e-02 
  1.938418189503e-02 
  1.951242064121e-02 
  1.984842609248e-02 
  1.976954546787e-02 
  1.930720083470e-02 
  2.021854969951e-02 
  1.899586908400e-02 
  2.110125711750e-02 
  1.529109098473e-02 
  1.631252521224e-02 
  1.723995527130e-02 
  1.806219112829e-02 
  1.880378403959e-02 
  1.948438480436e-02 
  1.591257057831e-02 
  1.691847273188e-02 
  1.780575301443e-02 
  1.859881851814e-02 
  1.929585112203e-02 
  1.662818290277e-02 
  1.758191978617e-02 
  1.842017608970e-02 
  1.915845310635e-02 
  1.739434099206e-02 
  1.828349540495e-02 
  1.905477138999e-02 
  1.818914386986e-02 
  1.900719229161e-02 
  1.902135143571e-02 
  2.027659846075e-02 
  1.983226252311e-02 
  2.001628869716e-02 
  2.014343887501e-02 
  2.005613644895e-02 
  2.133833999324e-02 
  1.998962196758e-02 
  1.991274338768e-02 
  2.006260017436e-02 
  2.008110974216e-02 
  2.019673466332e-02 
  1.997254617659e-02 
  2.001227153650e-02 
  2.006775185315e-02 
  2.006662854668e-02 
  2.003437978628e-02 
  2.005942073911e-02 
  2.001708325005e-02 
  2.000329405282e-02 
  2.014571426401e-02 
  1.971885241759e-02 
  1.932399459223e-02 
  1.994091603711e-02 
  2.051447323339e-02 
  2.105091789733e-02 
  2.154997567054e-02 
  2.200952974154e-02 
  1.972589209623e-02 
  2.030655039558e-02 
  2.085248796870e-02 
  2.136912216478e-02 
  2.185344943168e-02 
  2.012022436572e-02 
  2.066937911210e-02 
  2.119317100562e-02 
  2.169603585192e-02 
  2.051159035603e-02 
  2.103459341863e-02 
  2.154397897520e-02 
  2.089359993300e-02 
  2.139950383298e-02 
  2.126834605556e-02 
 -4.252959458485e-06 
  1.141198527308e-02 
  1.619581583294e-02 
  1.799055786513e-02 
  1.878456661333e-02 
  1.932518863150e-02 
  1.081214061147e-02 
  1.542718441945e-02 
  1.722907270665e-02 
  1.806635182682e-02 
  1.866088487152e-02 
  1.455981713048e-02 
  1.637670292349e-02 
  1.727720098894e-02 
  1.793706961606e-02 
  1.541196970442e-02 
  1.639926015185e-02 
  1.714315245006e-02 
  1.541367119648e-02 
  1.626649409854e-02 
  1.528743819823e-02 
  1.948119269336e-02 
  1.982888979609e-02 
  2.018341625564e-02 
  2.054017055488e-02 
  2.090154075322e-02 
  2.126775437125e-02 
  1.984493877155e-02 
  2.015812267402e-02 
  2.048053966883e-02 
  2.081262278225e-02 
  2.115508117494e-02 
  2.018545027849e-02 
  2.046021237162e-02 
  2.075184701389e-02 
  2.106132917808e-02 
  2.049099619830e-02 
  2.072856318551e-02 
  2.099056985008e-02 
  2.075091244203e-02 
  2.095409385052e-02 
  2.095518530773e-02 
  2.126771972343e-02 
  2.090159281005e-02 
  2.054023774120e-02 
  2.018330870369e-02 
  1.982899195674e-02 
  1.948119502216e-02 
  2.089352405243e-02 
  2.051467088269e-02 
  2.013126957938e-02 
  1.974392217964e-02 
  1.934622106773e-02 
  2.051116947387e-02 
  2.011061329295e-02 
  1.969871538733e-02 
  1.927428680104e-02 
  2.012005154932e-02 
  1.969377426848e-02 
  1.924882997169e-02 
  1.972565437293e-02 
  1.926695472265e-02 
  1.932475439507e-02 
  2.250449715933e-02 
  2.206980333426e-02 
  2.171831125189e-02 
  2.142701795269e-02 
  2.117886073722e-02 
  2.095523141894e-02 
  2.238206188197e-02 
  2.195397893862e-02 
  2.158250477530e-02 
  2.125303305041e-02 
  2.095400664465e-02 
  2.217727103311e-02 
  2.174777731586e-02 
  2.135621657042e-02 
  2.099070090640e-02 
  2.191117379749e-02 
  2.147632663918e-02 
  2.106143028841e-02 
  2.160354609732e-02 
  2.115506655434e-02 
  2.126843841744e-02 
  1.948236298326e-02 
  1.984511962369e-02 
  2.018550452604e-02 
  2.049124780367e-02 
  2.075098191127e-02 
  2.095488066432e-02 
  1.929654182038e-02 
  1.970743626415e-02 
  2.007652721742e-02 
  2.040485153178e-02 
  2.068565757065e-02 
  1.915791527330e-02 
  1.960507877462e-02 
  2.001309406243e-02 
  2.037048802295e-02 
  1.905507124183e-02 
  1.955250697240e-02 
  2.000471582912e-02 
  1.900711881073e-02 
  1.956163398898e-02 
  1.902205710231e-02 
  2.250416856533e-02 
  2.238211757265e-02 
  2.217721810601e-02 
  2.191117656658e-02 
  2.160334188734e-02 
  2.126935062985e-02 
  2.285000192642e-02 
  2.265318397576e-02 
  2.239433954224e-02 
  2.209647794000e-02 
  2.177216037997e-02 
  2.318514306746e-02 
  2.291387492188e-02 
  2.260651400828e-02 
  2.228048009437e-02 
  2.349412404848e-02 
  2.315595495879e-02 
  2.280685496633e-02 
  2.376908177639e-02 
  2.337302393270e-02 
  2.399911396814e-02 
  1.932515755781e-02 
  1.926697111703e-02 
  1.924901733695e-02 
  1.927446768875e-02 
  1.934568236299e-02 
  1.948279262916e-02 
  1.866110012379e-02 
  1.861523784858e-02 
  1.861916117629e-02 
  1.868205393924e-02 
  1.880428760701e-02 
  1.793701669481e-02 
  1.791178281927e-02 
  1.795173018543e-02 
  1.806253968586e-02 
  1.714350376886e-02 
  1.714949979787e-02 
  1.723970633910e-02 
  1.626624378954e-02 
  1.631276070464e-02 
  1.528944562793e-02 
 -5.017056595425e-07 
 -5.539589281565e-07 
 -4.759062239489e-07 
 -6.163420282205e-07 
 -5.354359448313e-07 
 -1.536028166257e-06 
  1.571449690750e-02 
  1.568552286487e-02 
  1.558977993758e-02 
  1.543635460887e-02 
  1.524476609125e-02 
  2.167843657449e-02 
  2.162638312444e-02 
  2.147583019594e-02 
  2.124655779497e-02 
  2.345594952355e-02 
  2.336918216202e-02 
  2.318491166290e-02 
  2.391204900327e-02 
  2.378648529179e-02 
  2.403892269038e-02 
  2.217995821202e-02 
  2.165449620548e-02 
  2.111304476451e-02 
  2.051843783030e-02 
  1.982812231264e-02 
  1.902157477000e-02 
  2.166453288006e-02 
  2.123778792068e-02 
  2.075807844862e-02 
  2.020380612046e-02 
  1.956180555336e-02 
  2.131162011453e-02 
  2.094752475868e-02 
  2.051080951543e-02 
  2.000469749392e-02 
  2.108849599438e-02 
  2.076298765236e-02 
  2.037026029582e-02 
  2.097077594778e-02 
  2.068578151533e-02 
  2.095436429241e-02 
  2.613143476121e-02 
  2.542315482219e-02 
  2.442462395224e-02 
  2.353357762225e-02 
  2.278272018493e-02 
  2.218038778217e-02 
  2.625594949214e-02 
  2.516432754551e-02 
  2.415514635172e-02 
  2.332085730013e-02 
  2.261661389775e-02 
  2.578846289591e-02 
  2.468368709793e-02 
  2.372721564744e-02 
  2.291147063019e-02 
  2.511705264801e-02 
  2.405443197722e-02 
  2.310894341580e-02 
  2.431397867631e-02 
  2.327695742848e-02 
  2.347061357322e-02 
  2.612698518544e-02 
  2.519866601325e-02 
  2.415293444631e-02 
  2.299106969443e-02 
  2.171324880752e-02 
  2.031978956084e-02 
  2.542400708957e-02 
  2.453843070328e-02 
  2.353649200536e-02 
  2.243299451783e-02 
  2.121864970632e-02 
  2.442281324720e-02 
  2.362188092803e-02 
  2.274004496362e-02 
  2.176576190346e-02 
  2.353565275085e-02 
  2.284340977003e-02 
  2.207059242611e-02 
  2.278167185243e-02 
  2.218066136167e-02 
  2.218541601743e-02 
  2.612779369385e-02 
  2.625701750771e-02 
  2.578783436188e-02 
  2.511743083110e-02 
  2.431262474373e-02 
  2.347545171849e-02 
  2.693907017752e-02 
  2.691956342263e-02 
  2.625949633427e-02 
  2.544893287616e-02 
  2.453359568022e-02 
  2.763571733294e-02 
  2.746593198811e-02 
  2.664757183811e-02 
  2.571203416644e-02 
  2.821717948332e-02 
  2.791770124107e-02 
  2.696141700966e-02 
  2.868277775473e-02 
  2.824851937365e-02 
  2.903053837532e-02 
  2.346568651935e-02 
  2.327633949541e-02 
  2.310790115552e-02 
  2.291045690714e-02 
  2.261461529525e-02 
  2.217843083029e-02 
  2.253788023856e-02 
  2.246587155679e-02 
  2.238503718494e-02 
  2.226729494166e-02 
  2.206116102770e-02 
  2.167740036215e-02 
  2.171662519732e-02 
  2.174155330716e-02 
  2.172590188629e-02 
  2.085835256821e-02 
  2.102601321685e-02 
  2.117916488718e-02 
  2.007913333276e-02 
  2.041253543412e-02 
  1.933039021163e-02 
  1.873414152080e-02 
  1.984667176897e-02 
  2.085295629381e-02 
  2.179020237257e-02 
  2.265144349782e-02 
  2.346388287154e-02 
  1.867911277676e-02 
  1.981353983657e-02 
  2.082412308722e-02 
  2.172671988028e-02 
  2.253807345378e-02 
  1.871084600319e-02 
  1.984873409391e-02 
  2.082719035911e-02 
  2.167703180691e-02 
  1.884082865848e-02 
  1.994130054843e-02 
  2.085869544372e-02 
  1.905667072359e-02 
  2.007883828689e-02 
  1.933243747310e-02 
  2.346785950728e-02 
  2.357005962942e-02 
  2.362274666324e-02 
  2.364187489412e-02 
  2.365588306163e-02 
  2.368047897065e-02 
  2.453504016189e-02 
  2.469817556737e-02 
  2.477737960627e-02 
  2.481473799203e-02 
  2.479256298668e-02 
  2.570939311310e-02 
  2.588533096807e-02 
  2.599471087227e-02 
  2.603362074610e-02 
  2.696406428198e-02 
  2.718625467190e-02 
  2.730348896312e-02 
  2.824722129799e-02 
  2.849583689992e-02 
  2.903711890880e-02 
  2.217726326905e-02 
  2.178650522523e-02 
  2.144238561798e-02 
  2.115507024043e-02 
  2.093767613030e-02 
  2.083245311453e-02 
  2.206126194167e-02 
  2.157758212274e-02 
  2.114703336237e-02 
  2.077249936844e-02 
  2.047252916545e-02 
  2.172561532003e-02 
  2.115355730713e-02 
  2.061798157296e-02 
  2.012530142823e-02 
  2.117962505003e-02 
  2.049198086323e-02 
  1.980628351272e-02 
  2.041226226193e-02 
  1.953907499982e-02 
  1.933252649550e-02 
  2.113789546404e-02 
  2.029622078601e-02 
  2.010154768449e-02 
  2.008410278711e-02 
  2.028009884073e-02 
  2.112151727288e-02 
  1.993485523291e-02 
  2.016465623308e-02 
  2.015377927557e-02 
  2.023074821392e-02 
  2.020446031189e-02 
  2.000012393293e-02 
  1.982624660134e-02 
  1.981775183315e-02 
  1.945638242258e-02 
  1.997057891828e-02 
  1.997097037257e-02 
  1.985703189281e-02 
  1.837299814719e-02 
  2.016672573941e-02 
  4.244583012845e-04 
  1.837348207535e-02 
  1.918067852435e-02 
  1.977722811037e-02 
  2.023092921900e-02 
  2.057369500982e-02 
  2.083494355383e-02 
  1.922892646401e-02 
  1.983631499445e-02 
  2.028648902129e-02 
  2.062513258982e-02 
  2.087181116030e-02 
  2.014140479804e-02 
  2.053893653429e-02 
  2.083053221828e-02 
  2.104478646196e-02 
  2.108122597361e-02 
  2.126515458844e-02 
  2.139236048776e-02 
  2.201715589935e-02 
  2.199129594703e-02 
  2.291825908466e-02 
  2.083198943641e-02 
  2.093774662486e-02 
  2.115496147490e-02 
  2.144243323200e-02 
  2.178634218219e-02 
  2.217784087242e-02 
  2.110836598194e-02 
  2.112814548196e-02 
  2.124985445093e-02 
  2.143476180373e-02 
  2.166477916875e-02 
  2.124184177395e-02 
  2.119068717010e-02 
  2.122418791431e-02 
  2.131110048041e-02 
  2.125252517127e-02 
  2.113607297975e-02 
  2.108822432898e-02 
  2.115683737035e-02 
  2.097050468266e-02 
  2.095487959104e-02 
  8.468725645802e-03 
  1.013961715647e-02 
  1.154698338615e-02 
  1.274907904317e-02 
  1.379101866399e-02 
  1.471687573901e-02 
  9.205725378879e-03 
  1.077474097572e-02 
  1.209427332503e-02 
  1.322036395718e-02 
  1.418954332084e-02 
  1.012818962417e-02 
  1.159922302843e-02 
  1.279876453277e-02 
  1.381814148590e-02 
  1.126237580979e-02 
  1.259163924303e-02 
  1.364324110276e-02 
  1.259910470873e-02 
  1.373192544274e-02 
  1.408779425386e-02 
  1.471591733029e-02 
  1.596973134283e-02 
  1.702209147940e-02 
  1.790875538632e-02 
  1.867297683645e-02 
  1.933596762417e-02 
  1.520027461480e-02 
  1.635926664295e-02 
  1.732144379562e-02 
  1.813597325535e-02 
  1.883721338077e-02 
  1.584612315443e-02 
  1.685905020666e-02 
  1.770630792208e-02 
  1.842926033653e-02 
  1.661711878913e-02 
  1.745346282947e-02 
  1.816331424597e-02 
  1.747167753822e-02 
  1.811768885916e-02 
  1.837442773956e-02 
  1.837228427309e-02 
  1.785782682212e-02 
  1.721904162895e-02 
  1.644572567136e-02 
  1.545237335912e-02 
  1.408808126706e-02 
  1.747095259094e-02 
  1.678891592939e-02 
  1.597550100002e-02 
  1.498303570122e-02 
  1.373196536540e-02 
  1.661694797231e-02 
  1.579510617367e-02 
  1.481866284933e-02 
  1.364312337180e-02 
  1.584575250034e-02 
  1.491621667504e-02 
  1.381801463711e-02 
  1.519969957016e-02 
  1.418963397504e-02 
  1.471680437828e-02 
  1.471617763465e-02 
  1.524989493402e-02 
  1.602887244190e-02 
  1.691616244115e-02 
  1.784171383799e-02 
  1.873708828749e-02 
  1.596990239225e-02 
  1.643726816022e-02 
  1.709744737592e-02 
  1.786652460107e-02 
  1.867901475410e-02 
  1.702234642473e-02 
  1.743920146344e-02 
  1.802579775967e-02 
  1.871087994440e-02 
  1.790854705924e-02 
  1.830322241548e-02 
  1.884106028532e-02 
  1.867324131376e-02 
  1.905694182431e-02 
  1.933438326003e-02 
  2.250399423830e-02 
  2.268244243930e-02 
  2.282658687614e-02 
  2.292876780234e-02 
  2.297211417872e-02 
  2.291879081613e-02 
  2.219236181780e-02 
  2.226709695948e-02 
  2.227436936883e-02 
  2.219200762920e-02 
  2.199121216817e-02 
  2.185437726405e-02 
  2.181274118511e-02 
  2.167000319926e-02 
  2.139250325808e-02 
  2.150463798163e-02 
  2.134075965987e-02 
  2.104466023742e-02 
  2.115688038974e-02 
  2.087188796935e-02 
  2.083450117263e-02 
  1.837545330372e-02 
  1.811747919989e-02 
  1.816357349385e-02 
  1.842908731511e-02 
  1.883739113550e-02 
  1.933513801805e-02 
  1.918051141626e-02 
  1.894978264203e-02 
  1.897814669823e-02 
  1.919143769187e-02 
  1.953962526583e-02 
  1.977751678542e-02 
  1.959372318242e-02 
  1.961882412459e-02 
  1.980676522925e-02 
  2.023082577589e-02 
  2.009033859324e-02 
  2.012567527932e-02 
  2.057389590696e-02 
  2.047285348615e-02 
  2.083368551871e-02 
  2.250466172402e-02 
  2.219213360299e-02 
  2.185424727058e-02 
  2.150438818056e-02 
  2.115662448207e-02 
  2.083290368590e-02 
  2.206978647960e-02 
  2.183111515166e-02 
  2.158287129468e-02 
  2.133692869966e-02 
  2.110818565877e-02 
  2.171839202623e-02 
  2.155155506023e-02 
  2.139024055332e-02 
  2.124211503531e-02 
  2.142696820406e-02 
  2.133208270377e-02 
  2.125261693406e-02 
  2.117900072010e-02 
  2.115701169986e-02 
  2.095482131644e-02 
  1.471621258755e-02 
  1.379126968086e-02 
  1.274903411787e-02 
  1.154670584729e-02 
  1.013973155978e-02 
  8.469030525771e-03 
  1.409531550621e-02 
  1.309057039757e-02 
  1.194052090207e-02 
  1.061240053640e-02 
  9.074476762497e-03 
  1.362992533969e-02 
  1.256527473612e-02 
  1.135122415488e-02 
  9.955870580866e-03 
  1.333396538113e-02 
  1.224785393345e-02 
  1.101996090165e-02 
  1.321967022232e-02 
  1.215320858604e-02 
  1.327970739791e-02 
  2.399949374952e-02 
  2.337288496232e-02 
  2.280698351391e-02 
  2.228033482348e-02 
  2.177216721532e-02 
  2.126911923137e-02 
  2.351329131253e-02 
  2.295275213512e-02 
  2.242367612064e-02 
  2.190988998696e-02 
  2.139974299340e-02 
  2.306314444206e-02 
  2.254780023076e-02 
  2.204478113114e-02 
  2.154413953463e-02 
  2.265870640434e-02 
  2.217935005849e-02 
  2.169620233771e-02 
  2.231076912964e-02 
  2.185383375260e-02 
  2.201032575688e-02 
  2.240011683691e-02 
  1.990872869614e-02 
  1.993537680202e-02 
  1.983678993649e-02 
  2.014180382089e-02 
  2.122176567679e-02 
  1.998193594125e-02 
  1.966643794056e-02 
  1.973461830616e-02 
  1.971734334938e-02 
  2.016362260993e-02 
  1.969119999615e-02 
  1.977722071737e-02 
  1.976449116366e-02 
  1.997511825561e-02 
  1.971071924398e-02 
  1.963305922174e-02 
  1.988052359773e-02 
  1.988547277678e-02 
  2.032561761157e-02 
  2.023306146649e-02 
  2.508532381911e-02 
  2.468478682871e-02 
  2.434692365520e-02 
  2.407434757958e-02 
  2.386214141915e-02 
  2.369527539499e-02 
  2.527614245375e-02 
  2.484271824608e-02 
  2.448347740053e-02 
  2.419918624770e-02 
  2.397755068118e-02 
  2.542044224869e-02 
  2.496046176996e-02 
  2.458687604451e-02 
  2.429261329980e-02 
  2.551320504721e-02 
  2.503636575806e-02 
  2.465489876921e-02 
  2.555543816988e-02 
  2.507134038507e-02 
  2.554485495449e-02 
  2.508484162905e-02 
  2.495713274720e-02 
  2.478214423163e-02 
  2.456103089862e-02 
  2.429731676459e-02 
  2.399852989204e-02 
  2.431714574442e-02 
  2.416319645674e-02 
  2.397604839809e-02 
  2.375835418827e-02 
  2.351337204250e-02 
  2.365377381096e-02 
  2.347841196677e-02 
  2.328062747315e-02 
  2.306293167780e-02 
  2.306760960976e-02 
  2.287219304311e-02 
  2.265877575823e-02 
  2.252823540494e-02 
  2.231054385781e-02 
  2.201097640641e-02 
  2.250349444238e-02 
  2.300835567492e-02 
  2.364342345955e-02 
  2.446835680159e-02 
  2.555185262116e-02 
  2.698645153719e-02 
  2.268234950594e-02 
  2.323988276261e-02 
  2.397515024654e-02 
  2.496678112003e-02 
  2.630656021422e-02 
  2.282636049630e-02 
  2.345730784222e-02 
  2.432848716956e-02 
  2.554652920419e-02 
  2.292865289350e-02 
  2.365682616581e-02 
  2.471528465778e-02 
  2.297214327802e-02 
  2.383139120058e-02 
  2.291803497505e-02 
  2.698645466467e-02 
  2.555193099749e-02 
  2.446839767103e-02 
  2.364348897310e-02 
  2.300840733384e-02 
  2.250353311036e-02 
  2.621476204102e-02 
  2.506521065725e-02 
  2.415898638742e-02 
  2.343791239156e-02 
  2.284971135304e-02 
  2.555515154932e-02 
  2.460795620934e-02 
  2.383120988928e-02 
  2.318476739172e-02 
  2.497704549245e-02 
  2.417656732934e-02 
  2.349365196546e-02 
  2.446377064225e-02 
  2.376852568775e-02 
  2.399811412927e-02 
  2.966282555648e-02 
  2.933986209936e-02 
  2.890558333659e-02 
  2.836199178660e-02 
  2.771538292861e-02 
  2.698813881349e-02 
  2.801317222144e-02 
  2.767270668602e-02 
  2.725072270081e-02 
  2.675915889178e-02 
  2.621462018874e-02 
  2.668681136355e-02 
  2.635646933010e-02 
  2.597609846907e-02 
  2.555543199282e-02 
  2.561598934407e-02 
  2.531188027155e-02 
  2.497684618008e-02 
  2.474076926982e-02 
  2.446377861059e-02 
  2.399707157063e-02 
  2.890884111220e-02 
  2.763785625850e-02 
  2.614425518929e-02 