# vtk DataFile Version 2
NuDG++ 2D simulation
ASCII
DATASET UNSTRUCTURED_GRID

POINTS 13286 double
 -1.000000000000e+00  -7.500000000000e-01  0.0
 -1.000000000000e+00  -7.708333333333e-01  0.0
 -1.000000000000e+00  -7.916666666667e-01  0.0
 -1.000000000000e+00  -8.125000000000e-01  0.0
 -1.000000000000e+00  -8.333333333333e-01  0.0
 -1.000000000000e+00  -8.541666666667e-01  0.0
 -1.000000000000e+00  -8.750000000000e-01  0.0
 -1.000000000000e+00  -8.958333333333e-01  0.0
 -1.000000000000e+00  -9.166666666667e-01  0.0
 -1.000000000000e+00  -9.375000000000e-01  0.0
 -1.000000000000e+00  -9.583333333333e-01  0.0
 -1.000000000000e+00  -9.791666666667e-01  0.0
 -1.000000000000e+00  -1.000000000000e+00  0.0
 -9.854429568065e-01  -7.562054016279e-01  0.0
 -9.854429568065e-01  -7.770387349612e-01  0.0
 -9.854429568065e-01  -7.978720682946e-01  0.0
 -9.854429568065e-01  -8.187054016279e-01  0.0
 -9.854429568065e-01  -8.395387349612e-01  0.0
 -9.854429568065e-01  -8.603720682946e-01  0.0
 -9.854429568065e-01  -8.812054016279e-01  0.0
 -9.854429568065e-01  -9.020387349613e-01  0.0
 -9.854429568065e-01  -9.228720682946e-01  0.0
 -9.854429568065e-01  -9.437054016279e-01  0.0
 -9.854429568065e-01  -9.645387349612e-01  0.0
 -9.854429568065e-01  -9.853720682946e-01  0.0
 -9.708859136130e-01  -7.624108032558e-01  0.0
 -9.708859136130e-01  -7.832441365892e-01  0.0
 -9.708859136130e-01  -8.040774699225e-01  0.0
 -9.708859136130e-01  -8.249108032558e-01  0.0
 -9.708859136130e-01  -8.457441365892e-01  0.0
 -9.708859136130e-01  -8.665774699225e-01  0.0
 -9.708859136130e-01  -8.874108032558e-01  0.0
 -9.708859136130e-01  -9.082441365892e-01  0.0
 -9.708859136130e-01  -9.290774699225e-01  0.0
 -9.708859136130e-01  -9.499108032558e-01  0.0
 -9.708859136130e-01  -9.707441365892e-01  0.0
 -9.563288704195e-01  -7.686162048838e-01  0.0
 -9.563288704195e-01  -7.894495382171e-01  0.0
 -9.563288704195e-01  -8.102828715504e-01  0.0
 -9.563288704195e-01  -8.311162048838e-01  0.0
 -9.563288704195e-01  -8.519495382171e-01  0.0
 -9.563288704195e-01  -8.727828715504e-01  0.0
 -9.563288704195e-01  -8.936162048838e-01  0.0
 -9.563288704195e-01  -9.144495382171e-01  0.0
 -9.563288704195e-01  -9.352828715504e-01  0.0
 -9.563288704195e-01  -9.561162048838e-01  0.0
 -9.417718272260e-01  -7.748216065117e-01  0.0
 -9.417718272260e-01  -7.956549398450e-01  0.0
 -9.417718272260e-01  -8.164882731783e-01  0.0
 -9.417718272260e-01  -8.373216065117e-01  0.0
 -9.417718272260e-01  -8.581549398450e-01  0.0
 -9.417718272260e-01  -8.789882731783e-01  0.0
 -9.417718272260e-01  -8.998216065117e-01  0.0
 -9.417718272260e-01  -9.206549398450e-01  0.0
 -9.417718272260e-01  -9.414882731783e-01  0.0
 -9.272147840325e-01  -7.810270081396e-01  0.0
 -9.272147840325e-01  -8.018603414729e-01  0.0
 -9.272147840325e-01  -8.226936748063e-01  0.0
 -9.272147840325e-01  -8.435270081396e-01  0.0
 -9.272147840325e-01  -8.643603414729e-01  0.0
 -9.272147840325e-01  -8.851936748062e-01  0.0
 -9.272147840325e-01  -9.060270081396e-01  0.0
 -9.272147840325e-01  -9.268603414729e-01  0.0
 -9.126577408390e-01  -7.872324097675e-01  0.0
 -9.126577408390e-01  -8.080657431008e-01  0.0
 -9.126577408390e-01  -8.288990764342e-01  0.0
 -9.126577408390e-01  -8.497324097675e-01  0.0
 -9.126577408390e-01  -8.705657431008e-01  0.0
 -9.126577408390e-01  -8.913990764342e-01  0.0
 -9.126577408390e-01  -9.122324097675e-01  0.0
 -8.981006976455e-01  -7.934378113954e-01  0.0
 -8.981006976455e-01  -8.142711447287e-01  0.0
 -8.981006976455e-01  -8.351044780621e-01  0.0
 -8.981006976455e-01  -8.559378113954e-01  0.0
 -8.981006976455e-01  -8.767711447288e-01  0.0
 -8.981006976455e-01  -8.976044780621e-01  0.0
 -8.835436544520e-01  -7.996432130233e-01  0.0
 -8.835436544520e-01  -8.204765463567e-01  0.0
 -8.835436544520e-01  -8.413098796900e-01  0.0
 -8.835436544520e-01  -8.621432130233e-01  0.0
 -8.835436544520e-01  -8.829765463567e-01  0.0
 -8.689866112585e-01  -8.058486146512e-01  0.0
 -8.689866112585e-01  -8.266819479846e-01  0.0
 -8.689866112585e-01  -8.475152813179e-01  0.0
 -8.689866112585e-01  -8.683486146513e-01  0.0
 -8.544295680650e-01  -8.120540162792e-01  0.0
 -8.544295680650e-01  -8.328873496125e-01  0.0
 -8.544295680650e-01  -8.537206829458e-01  0.0
 -8.398725248715e-01  -8.182594179071e-01  0.0
 -8.398725248715e-01  -8.390927512404e-01  0.0
 -8.253154816780e-01  -8.244648195350e-01  0.0
 -8.253154816780e-01  -8.244648195350e-01  0.0
 -8.398725248715e-01  -8.390927512404e-01  0.0
 -8.544295680650e-01  -8.537206829458e-01  0.0
 -8.689866112585e-01  -8.683486146512e-01  0.0
 -8.835436544520e-01  -8.829765463567e-01  0.0
 -8.981006976455e-01  -8.976044780621e-01  0.0
 -9.126577408390e-01  -9.122324097675e-01  0.0
 -9.272147840325e-01  -9.268603414729e-01  0.0
 -9.417718272260e-01  -9.414882731783e-01  0.0
 -9.563288704195e-01  -9.561162048838e-01  0.0
 -9.708859136130e-01  -9.707441365892e-01  0.0
 -9.854429568065e-01  -9.853720682946e-01  0.0
 -1.000000000000e+00  -1.000000000000e+00  0.0
 -8.190391915382e-01  -8.390927512404e-01  0.0
 -8.335962347317e-01  -8.537206829458e-01  0.0
 -8.481532779252e-01  -8.683486146513e-01  0.0
 -8.627103211187e-01  -8.829765463567e-01  0.0
 -8.772673643122e-01  -8.976044780621e-01  0.0
 -8.918244075057e-01  -9.122324097675e-01  0.0
 -9.063814506992e-01  -9.268603414729e-01  0.0
 -9.209384938927e-01  -9.414882731783e-01  0.0
 -9.354955370862e-01  -9.561162048837e-01  0.0
 -9.500525802797e-01  -9.707441365892e-01  0.0
 -9.646096234732e-01  -9.853720682946e-01  0.0
 -9.791666666667e-01  -1.000000000000e+00  0.0
 -8.127629013983e-01  -8.537206829458e-01  0.0
 -8.273199445918e-01  -8.683486146512e-01  0.0
 -8.418769877853e-01  -8.829765463567e-01  0.0
 -8.564340309788e-01  -8.976044780621e-01  0.0
 -8.709910741723e-01  -9.122324097675e-01  0.0
 -8.855481173658e-01  -9.268603414729e-01  0.0
 -9.001051605593e-01  -9.414882731783e-01  0.0
 -9.146622037528e-01  -9.561162048838e-01  0.0
 -9.292192469463e-01  -9.707441365892e-01  0.0
 -9.437762901398e-01  -9.853720682946e-01  0.0
 -9.583333333333e-01  -1.000000000000e+00  0.0
 -8.064866112585e-01  -8.683486146513e-01  0.0
 -8.210436544520e-01  -8.829765463567e-01  0.0
 -8.356006976455e-01  -8.976044780621e-01  0.0
 -8.501577408390e-01  -9.122324097675e-01  0.0
 -8.647147840325e-01  -9.268603414729e-01  0.0
 -8.792718272260e-01  -9.414882731783e-01  0.0
 -8.938288704195e-01  -9.561162048837e-01  0.0
 -9.083859136130e-01  -9.707441365892e-01  0.0
 -9.229429568065e-01  -9.853720682946e-01  0.0
 -9.375000000000e-01  -1.000000000000e+00  0.0
 -8.002103211187e-01  -8.829765463567e-01  0.0
 -8.147673643122e-01  -8.976044780621e-01  0.0
 -8.293244075057e-01  -9.122324097675e-01  0.0
 -8.438814506992e-01  -9.268603414729e-01  0.0
 -8.584384938927e-01  -9.414882731783e-01  0.0
 -8.729955370862e-01  -9.561162048838e-01  0.0
 -8.875525802797e-01  -9.707441365892e-01  0.0
 -9.021096234732e-01  -9.853720682946e-01  0.0
 -9.166666666667e-01  -1.000000000000e+00  0.0
 -7.939340309788e-01  -8.976044780621e-01  0.0
 -8.084910741723e-01  -9.122324097675e-01  0.0
 -8.230481173658e-01  -9.268603414729e-01  0.0
 -8.376051605593e-01  -9.414882731783e-01  0.0
 -8.521622037528e-01  -9.561162048837e-01  0.0
 -8.667192469463e-01  -9.707441365892e-01  0.0
 -8.812762901398e-01  -9.853720682946e-01  0.0
 -8.958333333333e-01  -1.000000000000e+00  0.0
 -7.876577408390e-01  -9.122324097675e-01  0.0
 -8.022147840325e-01  -9.268603414729e-01  0.0
 -8.167718272260e-01  -9.414882731783e-01  0.0
 -8.313288704195e-01  -9.561162048837e-01  0.0
 -8.458859136130e-01  -9.707441365892e-01  0.0
 -8.604429568065e-01  -9.853720682946e-01  0.0
 -8.750000000000e-01  -1.000000000000e+00  0.0
 -7.813814506992e-01  -9.268603414729e-01  0.0
 -7.959384938927e-01  -9.414882731783e-01  0.0
 -8.104955370862e-01  -9.561162048837e-01  0.0
 -8.250525802797e-01  -9.707441365892e-01  0.0
 -8.396096234732e-01  -9.853720682946e-01  0.0
 -8.541666666667e-01  -1.000000000000e+00  0.0
 -7.751051605593e-01  -9.414882731783e-01  0.0
 -7.896622037528e-01  -9.561162048837e-01  0.0
 -8.042192469463e-01  -9.707441365892e-01  0.0
 -8.187762901398e-01  -9.853720682946e-01  0.0
 -8.333333333333e-01  -1.000000000000e+00  0.0
 -7.688288704195e-01  -9.561162048837e-01  0.0
 -7.833859136130e-01  -9.707441365892e-01  0.0
 -7.979429568065e-01  -9.853720682946e-01  0.0
 -8.125000000000e-01  -1.000000000000e+00  0.0
 -7.625525802797e-01  -9.707441365892e-01  0.0
 -7.771096234732e-01  -9.853720682946e-01  0.0
 -7.916666666667e-01  -1.000000000000e+00  0.0
 -7.562762901398e-01  -9.853720682946e-01  0.0
 -7.708333333333e-01  -1.000000000000e+00  0.0
 -7.500000000000e-01  -1.000000000000e+00  0.0
  7.500000000000e-01  -1.000000000000e+00  0.0
  7.708333333333e-01  -1.000000000000e+00  0.0
  7.916666666667e-01  -1.000000000000e+00  0.0
  8.125000000000e-01  -1.000000000000e+00  0.0
  8.333333333333e-01  -1.000000000000e+00  0.0
  8.541666666667e-01  -1.000000000000e+00  0.0
  8.750000000000e-01  -1.000000000000e+00  0.0
  8.958333333333e-01  -1.000000000000e+00  0.0
  9.166666666667e-01  -1.000000000000e+00  0.0
  9.375000000000e-01  -1.000000000000e+00  0.0
  9.583333333333e-01  -1.000000000000e+00  0.0
  9.791666666667e-01  -1.000000000000e+00  0.0
  1.000000000000e+00  -1.000000000000e+00  0.0
  7.563790508287e-01  -9.849866634216e-01  0.0
  7.772123841620e-01  -9.849866634216e-01  0.0
  7.980457174953e-01  -9.849866634216e-01  0.0
  8.188790508287e-01  -9.849866634216e-01  0.0
  8.397123841620e-01  -9.849866634216e-01  0.0
  8.605457174953e-01  -9.849866634216e-01  0.0
  8.813790508287e-01  -9.849866634216e-01  0.0
  9.022123841620e-01  -9.849866634216e-01  0.0
  9.230457174953e-01  -9.849866634216e-01  0.0
  9.438790508287e-01  -9.849866634216e-01  0.0
  9.647123841620e-01  -9.849866634216e-01  0.0
  9.855457174953e-01  -9.849866634216e-01  0.0
  7.627581016573e-01  -9.699733268432e-01  0.0
  7.835914349907e-01  -9.699733268432e-01  0.0
  8.044247683240e-01  -9.699733268432e-01  0.0
[...]
POINT_DATA 13286
SCALARS field1 double 1
LOOKUP_TABLE default
 -1.025983215031e-12 
  3.728858379031e-13 
 -4.417020955913e-13 
 -4.302527268100e-13 
  4.586715151793e-13 
  7.804598512881e-13 
 -7.499956105013e-16 
 -7.302020998069e-13 
 -8.599806597416e-14 
  7.605109926041e-13 
 -2.630896661118e-12 
 -1.198645948531e-11 
 -6.851839967024e-12 
 -9.567162849471e-03 
 -1.014846802091e-02 
 -1.068631590175e-02 
 -1.117840334175e-02 
 -1.162262313930e-02 
 -1.201707307686e-02 
 -1.236006406290e-02 
 -1.265012735873e-02 
 -1.288602086642e-02 
 -1.306673445218e-02 
 -1.319149427802e-02 
 -1.325976611221e-02 
 -1.946904320777e-02 
 -2.060508038602e-02 
 -2.165288345213e-02 
 -2.260796555013e-02 
 -2.346623686241e-02 
 -2.422402214126e-02 
 -2.487807644065e-02 
 -2.542559900184e-02 
 -2.586424524495e-02 
 -2.619213681634e-02 
 -2.640786964030e-02 
 -2.967274336806e-02 
 -3.133521247941e-02 
 -3.286349939826e-02 
 -3.425105976910e-02 
 -3.549195183695e-02 
 -3.658086191475e-02 
 -3.751312713028e-02 
 -3.828475538230e-02 
 -3.889244243314e-02 
 -3.933358606359e-02 
 -4.014381719237e-02 
 -4.230282777352e-02 
 -4.428069114456e-02 
 -4.606893780228e-02 
 -4.765991019058e-02 
 -4.904679552346e-02 
 -5.022365495305e-02 
 -5.118544898790e-02 
 -5.192805906440e-02 
 -5.084641045242e-02 
 -5.347062449343e-02 
 -5.586586910498e-02 
 -5.802188749754e-02 
 -5.992944725506e-02 
 -6.158037991362e-02 
 -6.296761593668e-02 
 -6.408521496739e-02 
 -6.174340735235e-02 
 -6.480018783571e-02 
 -6.757948396399e-02 
 -7.006939437926e-02 
 -7.225925688205e-02 
 -7.413969414602e-02 
 -7.570265386660e-02 
 -7.279658260536e-02 
 -7.625214709611e-02 
 -7.938118818543e-02 
 -8.217030685141e-02 
 -8.460755963651e-02 
 -8.668250985876e-02 
 -8.396675841894e-02 
 -8.778633704462e-02 
 -9.123000109141e-02 
 -9.428300427738e-02 
 -9.693227315748e-02 
 -9.521396572644e-02 
 -9.936196286957e-02 
 -1.030844768170e-01 
 -1.063655672261e-01 
 -1.064976089868e-01 
 -1.109377679964e-01 
 -1.149028744296e-01 
 -1.177766338572e-01 
 -1.224722040695e-01 
 -1.290096970274e-01 
 -1.290096970229e-01 
 -1.224722040699e-01 
 -1.149028744280e-01 
 -1.063655672275e-01 
 -9.693227315830e-02 
 -8.668250985637e-02 
 -7.570265386428e-02 
 -6.408521496904e-02 
 -5.192805906761e-02 
 -3.933358606214e-02 
 -2.640786963691e-02 
 -1.325976611941e-02 
  2.193850307288e-11 
 -1.367664248831e-01 
 -1.299275689071e-01 
 -1.220742866767e-01 
 -1.132728221466e-01 
 -1.035973845692e-01 
 -9.312952519833e-02 
 -8.195745216814e-02 
 -7.017528945627e-02 
 -5.788228619329e-02 
 -4.518198292832e-02 
 -3.218134181226e-02 
 -1.898984801003e-02 
 -1.443958935737e-01 
 -1.372602653052e-01 
 -1.291283195061e-01 
 -1.200686393654e-01 
 -1.101576016127e-01 
 -9.947873498134e-02 
 -8.812201847939e-02 
 -7.618312548663e-02 
 -6.376262004710e-02 
 -5.096511207753e-02 
 -3.789837856168e-02 
 -1.518584744018e-01 
 -1.444308695921e-01 
 -1.360257418061e-01 
 -1.267139662623e-01 
 -1.165740345889e-01 
 -1.056913954993e-01 
 -9.415773693959e-02 
 -8.207021583523e-02 
 -6.953064191651e-02 
 -5.664462245146e-02 
 -1.591149445236e-01 
 -1.514003611463e-01 
 -1.427277222439e-01 
 -1.331701462781e-01 
 -1.228081857422e-01 
 -1.117291505101e-01 
 -1.000263743532e-01 
 -8.779843086390e-02 
 -7.514830537234e-02 
 -1.661266609011e-01 
 -1.581302962099e-01 
 -1.491960029422e-01 
 -1.393990924717e-01 
 -1.288221227060e-01 
 -1.175542045793e-01 
 -1.056902534430e-01 
 -9.333019170109e-02 
 -1.728557319796e-01 
 -1.645829794193e-01 
 -1.553930708747e-01 
 -1.453634587905e-01 
 -1.345786496585e-01 
 -1.231294941347e-01 
 -1.111124238155e-01 
 -1.792651863269e-01 
 -1.707216322983e-01 
 -1.612823262228e-01 
 -1.510268083017e-01 
 -1.400414754412e-01 
 -1.284188554825e-01 
 -1.853191375029e-01 
 -1.765105579814e-01 
 -1.668282469634e-01 
 -1.563537776564e-01 
 -1.451753779094e-01 
 -1.909829444480e-01 
 -1.819153014589e-01 
 -1.719965489823e-01 
 -1.613102370807e-01 
 -1.962233667083e-01 
 -1.869028046638e-01 
 -1.767543410316e-01 
 -2.010087138390e-01 
 -1.914415557404e-01 
 -2.053089883501e-01 
  2.053089883437e-01 
  1.914415557348e-01 
  1.767543410373e-01 
  1.613102370864e-01 
  1.451753779087e-01 
  1.284188554780e-01 
  1.111124238130e-01 
  9.333019170263e-02 
  7.514830537423e-02 
  5.664462244916e-02 
  3.789837855716e-02 
  1.898984801138e-02 
 -2.643016024988e-11 
  2.009298645672e-01 
  1.868206525153e-01 
  1.719114457426e-01 
  1.562660877446e-01 
  1.399515743579e-01 
  1.230377668533e-01 
  1.055970927572e-01 
  8.770423570245e-02 
  6.943581563475e-02 
  5.087006073387e-02 
  3.208647243359e-02 
  1.316548495567e-02 
  1.960418826881e-01 
  1.817290650006e-01 
  1.666380555630e-01 
  1.508334763884e-01 
  1.343830051089e-01 
  1.173570851737e-01 
  9.982862418790e-02 
  8.187268170710e-02 
  6.356614782699e-02 
  4.498741393987e-02 
  2.621603705601e-02 
  1.906771980752e-01 
  1.762005619779e-01 
  1.609694080468e-01 
  1.450489584072e-01 
  1.285073868516e-01 
  1.114155269294e-01 
  9.384656861742e-02 
  7.587574489561e-02 
  5.758000958502e-02 
  3.903770782923e-02 
  1.848698179871e-01 
  1.702706026926e-01 
  1.549422625644e-01 
  1.389504358869e-01 
  1.223636020947e-01 
  1.052527885620e-01 
  8.769126643686e-02 
  6.975423685776e-02 
  5.151850892304e-02 
  1.786554407504e-01 
  1.639761689910e-01 
  1.485947261224e-01 
  1.325769778250e-01 
  1.159915145369e-01 
  9.890935777034e-02 
  8.140365596124e-02 
  6.354937120636e-02 
  1.720712875857e-01 
  1.573555908405e-01 
  1.419660733098e-01 
  1.259686352611e-01 
  1.094317801644e-01 
  9.242632138134e-02 
  7.502507890462e-02 
  1.651559278200e-01 
  1.504483659932e-01 
  1.350965611748e-01 
  1.191662521522e-01 
  1.027256549327e-01 
  8.584517067370e-02 
  1.579490982575e-01 
  1.432949745975e-01 
  1.280272398646e-01 
  1.122112728523e-01 
  9.591479992472e-02 
  1.504915175125e-01 
  1.359366895892e-01 
  1.207997598905e-01 
  1.051455470919e-01 
  1.428246961424e-01 
  1.284153837307e-01 
  1.134561769158e-01 
  1.349907434472e-01 
  1.207733341952e-01 
  1.270321718394e-01 
  1.270321718454e-01 
  1.207733341938e-01 
  1.134561769172e-01 
  1.051455470899e-01 
  9.591479992343e-02 
  8.584517067646e-02 
  7.502507890758e-02 
  6.354937120469e-02 
  5.151850891941e-02 
  3.903770783101e-02 
  2.621603705991e-02 
  1.316548494670e-02 
  8.091730869704e-12 
  1.160044392526e-01 
  1.094284645145e-01 
  1.018122842156e-01 
  9.322329928422e-02 
  8.373724204780e-02 
  7.343752775572e-02 
  6.241454016769e-02 
  5.076485747092e-02 
  3.859042518364e-02 
  2.599768309876e-02 
  1.309665371695e-02 
  1.424676019415e-11 
  1.049321626043e-01 
  9.804304552779e-02 
  9.013260215789e-02 
  8.127073768978e-02 
  7.153550584541e-02 
  6.101244049366e-02 
  4.979382310031e-02 
  3.797789239927e-02 
  2.566800307228e-02 
  1.297174061997e-02 
  2.940745927607e-12 
  9.385397145124e-02 
  8.665594340161e-02 
  7.845621954320e-02 
  6.932715790921e-02 
  5.934907618858e-02 
  4.860956394133e-02 
  3.720273244791e-02 
  2.522840871338e-02 
  1.279128054268e-02 
 -7.316736383255e-13 
  8.280821058641e-02 
  7.530573983088e-02 
  6.682194043022e-02 
  5.743157002268e-02 
  4.721715117272e-02 
  3.626826469134e-02 
  2.468078243540e-02 
  1.255604623582e-02 
  3.703678518711e-13 
  7.183278937939e-02 
  6.403058115548e-02 
  5.526813305085e-02 
  4.562254731073e-02 
  3.517849066235e-02 
  2.402746926256e-02 
  1.226704500997e-02 
  8.337793414086e-13 
  6.096503310122e-02 
  5.286802945716e-02 
  4.383258069099e-02 
  3.393807693192e-02 
  2.327126677999e-02 
  1.192551441559e-02 
 -2.555928691821e-13 
  5.024153684068e-02 
  4.185491623563e-02 
  3.255233513846e-02 
  2.241541315569e-02 
  1.153291693808e-02 
 -9.957609241530e-13 
  3.969802259825e-02 
  3.102719925034e-02 
  2.146357328440e-02 
  1.109093373638e-02 
 -2.740928047770e-13 
  2.936920013051e-02 
  2.041982310034e-02 
  1.060145745048e-02 
  7.030028652697e-13 
  1.928863210322e-02 
  1.006658410059e-02 
  1.607784801898e-13 
  9.488604097925e-03 
 -8.202469902847e-13 
  2.381939604474e-12 
 -5.290686445631e-12 
  2.180697566480e-12 
  8.195882795891e-13 
  3.875392422858e-13 
 -7.323512191630e-13 
 -1.510723165315e-12 
 -1.497307522481e-13 
  1.991374031768e-12 
  1.384709427965e-12 
 -1.692234200441e-12 
  9.816387487582e-13 
  1.416064506283e-11 
 -8.430616690600e-12 
  9.539502483506e-03 
  1.011860919733e-02 
  1.065438649492e-02 
  1.114454008241e-02 
  1.158697102389e-02 
  1.197978476287e-02 
  1.232129922631e-02 
  1.261005200744e-02 
  1.284480661654e-02 
  1.302455778217e-02 
  1.314853577832e-02 
  1.321620974611e-02 
  1.942031618907e-02 
  2.055147876926e-02 
  2.159463677881e-02 
  2.254532324145e-02 
  2.339946714612e-02 
  2.415341092462e-02 
  2.480392609842e-02 
  2.534822707315e-02 
  2.578398305240e-02 
  2.610932803554e-02 
  2.632286885730e-02 
  2.960924445749e-02 
  3.126367331369e-02 
  3.278422632803e-02 
  3.416439225352e-02 
  3.539826098362e-02 
  3.648054891387e-02 
  3.740662154743e-02 
  3.817251330544e-02 
  3.877494449606e-02 
  3.921133538930e-02 
  4.007151128169e-02 
  4.221881735555e-02 
  4.418533598007e-02 
  4.596264621924e-02 
  4.754313733111e-02 
  4.892004142025e-02 
  5.008746239717e-02 
  5.104040118775e-02 
  5.177477712897e-02 
  5.077090462523e-02 
  5.337924509714e-02 
  5.575900746626e-02 
  5.790000121849e-02 
  5.979305825632e-02 
  6.143007222831e-02 
  6.280403321656e-02 
  6.390905770758e-02 
  6.166992607194e-02 
  6.470615585468e-02 
  6.746530397576e-02 
  6.993555532169e-02 
  7.210633185817e-02 
  7.396833800173e-02 
  7.551360038856e-02 
  7.272994615941e-02 
  7.615977452301e-02 
  7.926347507279e-02 
  8.202775726063e-02 
  8.444078397168e-02 
  8.649222228235e-02 
  8.391136473596e-02 
  8.769951638967e-02 
  9.111212527011e-02 
  9.413457804330e-02 
  9.675393208563e-02 
  9.517377566259e-02 
  9.928415560125e-02 
  1.029693855433e-01 
  1.062136847789e-01 
  1.064761351629e-01 
  1.108719965670e-01 
  1.147930870521e-01 
  1.177769331062e-01 
  1.224210475659e-01 
  1.290343664895e-01 
  1.290343664932e-01 
  1.224210475636e-01 
  1.147930870507e-01 
  1.062136847791e-01 
  9.675393208462e-02 
  8.649222227992e-02 
  7.551360038767e-02 
  6.390905771005e-02 
  5.177477713204e-02 
  3.921133538825e-02 
  2.632286885349e-02 
  1.321620974885e-02 
 -1.419700093332e-11 
  1.367667773244e-01 
  1.298618414488e-01 
  1.219592310174e-01 
  1.131244240447e-01 
  1.034306304430e-01 
  9.295818488544e-02 
  8.179388044696e-02 
  7.003024869136e-02 
  5.776479220353e-02 
  4.509917589711e-02 
  3.213838375922e-02 
  1.898984802468e-02 
  1.443745074865e-01 
  1.371825291187e-01 
  1.290104998412e-01 
  1.199261327582e-01 
  1.100047081698e-01 
  9.932844923841e-02 
  8.798583997450e-02 
  7.607089130875e-02 
  6.368236135292e-02 
  5.092293627955e-02 
  3.789837858334e-02 
  1.518183905588e-01 
  1.443441328830e-01 
  1.359080929559e-01 
  1.265801744042e-01 
  1.164376783682e-01 
  1.055646623866e-01 
  9.405124317363e-02 
  8.199284915520e-02 
  6.948942896851e-02 
  5.664462245503e-02 
  1.590596621801e-01 
  1.513080738405e-01 
  1.426136048930e-01 
  1.330483034817e-01 
  1.226914407108e-01 
  1.116288531751e-01 
  9.995223098434e-02 
  8.775835725389e-02 
  7.514830536216e-02 
  1.660601303193e-01 
  1.580363420338e-01 
  1.490891953278e-01 
  1.392928354478e-01 
  1.287284512902e-01 
  1.174836020137e-01 
  1.056514907798e-01 
  9.333019169575e-02 
  1.727823432953e-01 
  1.644916643537e-01 
  1.552977568756e-01 
  1.452768144141e-01 
  1.345118902243e-01 
  1.230922084028e-01 
  1.111124238233e-01 
  1.791897548223e-01 
  1.706376694706e-01 
  1.612030799153e-01 
  1.509641778722e-01 
  1.400058262941e-01 
  1.284188554940e-01 
  1.852468853708e-01 
  1.764390490826e-01 
  1.667700137342e-01 
  1.563199177440e-01 
  1.451753779096e-01 
  1.909194791541e-01 
  1.818617147931e-01 
  1.719646233048e-01 
  1.613102370672e-01 
  1.961746560681e-01 
  1.868729499443e-01 
  1.767543410219e-01 
  2.009810579265e-01 
  1.914415557528e-01 
  2.053089883575e-01 
 -2.053089883571e-01 
 -1.914415557523e-01 
 -1.767543410222e-01 
 -1.613102370676e-01 
 -1.451753779097e-01 
 -1.284188554941e-01 
 -1.111124238233e-01 
 -9.333019169564e-02 
 -7.514830536167e-02 
 -5.664462245447e-02 
 -3.789837858377e-02 
 -1.898984802674e-02 
  1.454502595316e-11 
 -2.009530343725e-01 
 -1.868439254765e-01 
 -1.719347222105e-01 
 -1.562892680639e-01 
 -1.399745592746e-01 
 -1.230604579345e-01 
 -1.056193928231e-01 
 -8.772604925730e-02 
 -6.945704927972e-02 
 -5.089062355324e-02 
 -3.210627636338e-02 
 -1.318444517204e-02 
 -1.961076662620e-01 
 -1.817935692573e-01 
 -1.667010042784e-01 
 -1.508946000056e-01 
 -1.344420418898e-01 
 -1.174137823129e-01 
 -9.988273889595e-02 
 -8.192398225507e-02 
 -6.361441453937e-02 
 -4.503244012820e-02 
 -2.625762990209e-02 
 -1.908035170005e-01 
 -1.763226653545e-01 
 -1.610867729859e-01 
 -1.451610823278e-01 
 -1.286137896295e-01 
 -1.115157529385e-01 
 -9.394018867398e-02 
 -7.596235809843e-02 
 -5.765924503803e-02 
 -3.910922623660e-02 
 -1.850729510592e-01 
 -1.704649731862e-01 
 -1.551270381306e-01 
 -1.391248252862e-01 
 -1.225268585776e-01 
 -1.054042130475e-01 
 -8.783021049844e-02 
 -6.988010550790e-02 
 -5.163076317765e-02 
 -1.789499168437e-01 
 -1.642556792133e-01 
 -1.488580735503e-01 
 -1.328230347660e-01 
 -1.162192273492e-01 
 -9.911775135694e-02 
 -8.159183794407e-02 
 -6.371653576354e-02 
 -1.724697924006e-01 
 -1.577312367764e-01 
 -1.423172517804e-01 
 -1.262938424661e-01 
 -1.097296235233e-01 
 -9.269552548524e-02 
 -7.526449098206e-02 
 -1.656692250790e-01 
 -1.509292005902e-01 
 -1.355428740888e-01 
 -1.195761321981e-01 
 -1.030973469456e-01 
 -8.617708301587e-02 
 -1.585859658523e-01 
 -1.438880566194e-01 
 -1.285739966302e-01 
 -1.127093630606e-01 
 -9.636209068128e-02 
 -1.512586990255e-01 
 -1.366470480787e-01 
 -1.214502534821e-01 
 -1.057333902688e-01 
 -1.437268680735e-01 
 -1.292459983205e-01 
 -1.142116773411e-01 
 -1.360304983720e-01 
 -1.217251313901e-01 
 -1.282100176050e-01 
 -1.282100176015e-01 
 -1.217251313924e-01 
 -1.142116773425e-01 
 -1.057333902688e-01 
 -9.636209068250e-02 
 -8.617708301830e-02 
 -7.526449098275e-02 
 -6.371653576082e-02 
 -5.163076317442e-02 
 -3.910922623763e-02 
 -2.625762990602e-02 
 -1.318444516939e-02 
  1.037716193494e-11 
 -1.170411087460e-01 
 -1.102565291346e-01 
 -1.024607123233e-01 
 -9.371975750621e-02 
 -8.410768456591e-02 
 -7.370581385174e-02 
 -6.260208463757e-02 
 -5.089031811671e-02 
 -3.866943114508e-02 
 -2.604260729551e-02 
 -1.311643213832e-02 
 -1.548526274764e-11 
 -1.058292455348e-01 
 -9.874928188643e-02 
 -9.067610192314e-02 
 -8.167812409705e-02 
 -7.183151713473e-02 
 -6.121956179226e-02 
 -4.993195288612e-02 
 -3.806404757652e-02 
 -2.571606623166e-02 
 -1.299225255392e-02 
 -8.092899161478e-13 
 -9.461499186681e-02 
 -8.724415734949e-02 
 -7.889880533231e-02 
 -6.964962682442e-02 
 -5.957488740356e-02 
 -4.875977138607e-02 
 -3.729566790627e-02 
 -2.527940499941e-02 
 -1.281243813490e-02 
  1.698295759169e-12 
 -8.343861992410e-02 
 -7.578162977511e-02 
 -6.716948609188e-02 
 -5.767510419051e-02 
 -4.737879307717e-02 
 -3.636758248303e-02 
 -2.473449347836e-02 
 -1.257775887789e-02 
 -1.863252200550e-12 
 -7.233994568375e-02 
 -6.440171531970e-02 
 -5.552834730382e-02 
 -4.579493149273e-02 
 -3.528376550482e-02 
 -2.408366508142e-02 
 -1.228921973328e-02 
 -2.220540572172e-12 
 -6.135816655378e-02 
 -5.314380952082e-02 
 -4.401496895823e-02 
 -3.404885801327e-02 
 -2.332970674356e-02 
 -1.194805627702e-02 
  4.028385364948e-13 
 -5.053170181315e-02 
 -4.204652757488e-02 
 -3.266814805883e-02 
 -2.247584700320e-02 
 -1.155572941213e-02 
  1.730758539066e-12 
 -3.989803651918e-02 
 -3.114754807954e-02 
 -2.152574221033e-02 
 -1.111391912506e-02 
  5.455607771914e-13 
 -2.949356952826e-02 
 -2.048346088709e-02 
 -1.062451731402e-02 
 -5.709347482073e-13 
 -1.935346625813e-02 
 -1.008961969745e-02 
 -5.111162595259e-13 
 -9.511516802976e-03 
 -2.164607564194e-12 
  4.975460366499e-12 
  3.189480992515e-11 
 -9.567162820957e-03 
 -1.946904318848e-02 
 -2.967274335568e-02 
 -4.014381718343e-02 
 -5.084641044566e-02 
 -6.174340734869e-02 
 -7.279658260601e-02 
 -8.396675842375e-02 
 -9.521396573439e-02 
 -1.064976089981e-01 
 -1.177766338738e-01 
 -1.290096970429e-01 
 -1.069718621433e-02 
 -2.011397790776e-02 
 -2.985154053839e-02 
 -3.987672786478e-02 
 -5.015488497055e-02 
 -6.064999015528e-02 
 -7.132480284476e-02 
 -8.214101688880e-02 
 -9.305941859691e-02 
 -1.040400488441e-01 
 -1.150423685618e-01 
 -1.260254269093e-01 
 -2.049444996646e-02 
 -2.973885699229e-02 
 -3.929062561228e-02 
 -4.911638352979e-02 
 -5.918128952389e-02 
 -6.944917684204e-02 
 -7.988270244861e-02 
 -9.044350149228e-02 
 -1.010923463377e-01 
 -1.117893094886e-01 
 -1.224939297118e-01 
 -2.932463095188e-02 
 -3.837693848092e-02 
 -4.772378209955e-02 
 -5.733158442955e-02 
 -6.716533887426e-02 
 -7.718875446352e-02 
 -8.736440639004e-02 
 -9.765389159535e-02 
 -1.080179887455e-01 
 -1.184168219185e-01 
 -3.712885456711e-02 
 -4.597179395408e-02 
 -5.509706861123e-02 
 -6.447091544373e-02 
 -7.405818176032e-02 
 -8.382247152321e-02 
 -9.372629712431e-02 
 -1.037312360409e-01 
 -1.137980917054e-01 
 -4.385701803102e-02 
 -5.247589371239e-02 
 -6.136556328250e-02 
 -7.049209559489e-02 
 -7.982020941294e-02 
 -8.931342101968e-02 
 -9.893419718815e-02 
 -1.086441128601e-01 
 -4.946820332278e-02 
 -5.785099804375e-02 
 -6.649373309170e-02 
 -7.536232516191e-02 
 -8.442138022512e-02 
 -9.363434245462e-02 
 -1.029636483472e-01 
 -5.393101352137e-02 
 -6.206847101980e-02 
 -7.045572489568e-02 
 -7.905855375583e-02 
 -8.784146468967e-02 
 -9.676784347338e-02 
 -5.722382979916e-02 
 -6.510951426516e-02 
 -7.323557581624e-02 
 -8.156766718437e-02 
 -9.007020862243e-02 
 -5.933498695663e-02 
 -6.696531877844e-02 
 -7.482734124772e-02 
 -8.288659156653e-02 
 -6.026286602104e-02 
 -6.763713351864e-02 
 -7.523513939111e-02 
 -6.001590306659e-02 
 -6.713625010605e-02 
 -5.861251404891e-02 
  5.536599761338e-11 
 -1.069718622403e-02 
 -2.049444996727e-02 
 -2.932463094721e-02 
 -3.712885456775e-02 
 -4.385701803731e-02 
 -4.946820332744e-02 
 -5.393101352126e-02 
 -5.722382980090e-02 
 -5.933498696764e-02 
 -6.026286603306e-02 
 -6.001590306411e-02 
 -5.861251410943e-02 
 -1.176764693848e-11 
 -9.920693616430e-03 
 -1.889479515869e-02 
 -2.686107194929e-02 
 -3.376693211074e-02 
 -3.956885858081e-02 
 -4.423276743263e-02 
 -4.773428756489e-02 
 -5.005895945995e-02 
 -5.120235135252e-02 
 -5.117009179590e-02 
 -4.997781825757e-02 
 -5.482779755031e-12 
 -9.101719099234e-03 
 -1.721422993638e-02 
 -2.428248970189e-02 
 -3.026041446461e-02 
 -3.511125921300e-02 
 -3.880792005211e-02 
 -4.133315606403e-02 
 -4.267972897857e-02 
 -4.285045944548e-02 
 -4.185819934408e-02 
 -8.304857956071e-13 
 -8.243769622744e-03 
 -1.545995072486e-02 
 -2.159992610040e-02 
 -2.662431708495e-02 
 -3.050330804498e-02 
 -3.321689118546e-02 
 -3.475502962771e-02 
 -3.511773735282e-02 
 -3.431507525092e-02 
 -2.494054265473e-12 
 -7.350519054767e-03 
 -1.363946963227e-02 
 -1.882486831084e-02 
 -2.287421029947e-02 
 -2.576473702069e-02 
 -2.748362248112e-02 
 -2.802807683208e-02 
 -2.740536616455e-02 
 -2.716106640635e-12 
 -6.425792437189e-03 
 -1.176058224716e-02 
 -1.596919955297e-02 
 -1.902615262845e-02 
 -2.091583743050e-02 
 -2.163266470336e-02 
 -2.118110350590e-02 
 -9.232248205109e-14 
 -5.473549594420e-03 
 -9.831334246613e-03 
 -1.304514822303e-02 
 -1.509662204150e-02 
 -1.597737302616e-02 
 -1.568907253445e-02 
  1.620317325830e-12 
 -4.497868172602e-03 
 -7.859986954537e-03 
 -1.006523555431e-02 
 -1.110244540859e-02 
 -1.097049105502e-02 
  4.444640056104e-13 
 -3.502926183555e-03 
 -5.854981983629e-03 
 -7.042222009128e-03 
 -7.060726398574e-03 
 -4.567850064635e-13 
 -2.492984122538e-03 
 -3.824905090019e-03 
 -3.989052590764e-03 
  2.582462261926e-12 
 -1.472366723999e-03 