# vtk DataFile Version 2
NuDG++ 2D simulation
ASCII
DATASET UNSTRUCTURED_GRID

POINTS 7854 double
 -1.656250060000e-01  -2.000000030000e-01  0.0
 -1.725000054000e-01  -1.908888817000e-01  0.0
 -1.793750048000e-01  -1.817777604000e-01  0.0
 -1.862500042000e-01  -1.726666391000e-01  0.0
 -1.931250036000e-01  -1.635555178000e-01  0.0
 -2.000000030000e-01  -1.544443965000e-01  0.0
 -1.725000054000e-01  -2.000000030000e-01  0.0
 -1.793750048000e-01  -1.908888817000e-01  0.0
 -1.862500042000e-01  -1.817777604000e-01  0.0
 -1.931250036000e-01  -1.726666391000e-01  0.0
 -2.000000030000e-01  -1.635555178000e-01  0.0
 -1.793750048000e-01  -2.000000030000e-01  0.0
 -1.862500042000e-01  -1.908888817000e-01  0.0
 -1.931250036000e-01  -1.817777604000e-01  0.0
 -2.000000030000e-01  -1.726666391000e-01  0.0
 -1.862500042000e-01  -2.000000030000e-01  0.0
 -1.931250036000e-01  -1.908888817000e-01  0.0
 -2.000000030000e-01  -1.817777604000e-01  0.0
 -1.931250036000e-01  -2.000000030000e-01  0.0
 -2.000000030000e-01  -1.908888817000e-01  0.0
 -2.000000030000e-01  -2.000000030000e-01  0.0
 -6.428571790000e-02  -1.700000018000e-01  0.0
 -7.080357372400e-02  -1.760000020400e-01  0.0
 -7.732142954800e-02  -1.820000022800e-01  0.0
 -8.383928537200e-02  -1.880000025200e-01  0.0
 -9.035714119600e-02  -1.940000027600e-01  0.0
 -9.687499702000e-02  -2.000000030000e-01  0.0
 -6.392857432000e-02  -1.760000020400e-01  0.0
 -7.044643014400e-02  -1.820000022800e-01  0.0
 -7.696428596800e-02  -1.880000025200e-01  0.0
 -8.348214179200e-02  -1.940000027600e-01  0.0
 -8.999999761600e-02  -2.000000030000e-01  0.0
 -6.357143074000e-02  -1.820000022800e-01  0.0
 -7.008928656400e-02  -1.880000025200e-01  0.0
 -7.660714238800e-02  -1.940000027600e-01  0.0
 -8.312499821200e-02  -2.000000030000e-01  0.0
 -6.321428716000e-02  -1.880000025200e-01  0.0
 -6.973214298400e-02  -1.940000027600e-01  0.0
 -7.624999880800e-02  -2.000000030000e-01  0.0
 -6.285714358000e-02  -1.940000027600e-01  0.0
 -6.937499940400e-02  -2.000000030000e-01  0.0
 -6.250000000000e-02  -2.000000030000e-01  0.0
 -2.000000030000e-01  -1.544443965000e-01  0.0
 -1.900000036000e-01  -1.478412374800e-01  0.0
 -1.800000042000e-01  -1.412380784600e-01  0.0
 -1.700000048000e-01  -1.346349194400e-01  0.0
 -1.600000054000e-01  -1.280317604200e-01  0.0
 -1.500000060000e-01  -1.214286014000e-01  0.0
 -2.000000030000e-01  -1.453332975600e-01  0.0
 -1.900000036000e-01  -1.387301385400e-01  0.0
 -1.800000042000e-01  -1.321269795200e-01  0.0
 -1.700000048000e-01  -1.255238205000e-01  0.0
 -1.600000054000e-01  -1.189206614800e-01  0.0
 -2.000000030000e-01  -1.362221986200e-01  0.0
 -1.900000036000e-01  -1.296190396000e-01  0.0
 -1.800000042000e-01  -1.230158805800e-01  0.0
 -1.700000048000e-01  -1.164127215600e-01  0.0
 -2.000000030000e-01  -1.271110996800e-01  0.0
 -1.900000036000e-01  -1.205079406600e-01  0.0
 -1.800000042000e-01  -1.139047816400e-01  0.0
 -2.000000030000e-01  -1.180000007400e-01  0.0
 -1.900000036000e-01  -1.113968417200e-01  0.0
 -2.000000030000e-01  -1.088889018000e-01  0.0
 -1.500000060000e-01  -1.214286014000e-01  0.0
 -1.600000054000e-01  -1.280317604200e-01  0.0
 -1.700000048000e-01  -1.346349194400e-01  0.0
 -1.800000042000e-01  -1.412380784600e-01  0.0
 -1.900000036000e-01  -1.478412374800e-01  0.0
 -2.000000030000e-01  -1.544443965000e-01  0.0
 -1.500000060000e-01  -1.311428814800e-01  0.0
 -1.600000054000e-01  -1.377460405000e-01  0.0
 -1.700000048000e-01  -1.443491995200e-01  0.0
 -1.800000042000e-01  -1.509523585400e-01  0.0
 -1.900000036000e-01  -1.575555175600e-01  0.0
 -1.500000060000e-01  -1.408571615600e-01  0.0
 -1.600000054000e-01  -1.474603205800e-01  0.0
 -1.700000048000e-01  -1.540634796000e-01  0.0
 -1.800000042000e-01  -1.606666386200e-01  0.0
 -1.500000060000e-01  -1.505714416400e-01  0.0
 -1.600000054000e-01  -1.571746006600e-01  0.0
 -1.700000048000e-01  -1.637777596800e-01  0.0
 -1.500000060000e-01  -1.602857217200e-01  0.0
 -1.600000054000e-01  -1.668888807400e-01  0.0
 -1.500000060000e-01  -1.700000018000e-01  0.0
 -1.500000060000e-01  -7.285714149000e-02  0.0
 -1.600000054000e-01  -8.006349355200e-02  0.0
 -1.700000048000e-01  -8.726984561400e-02  0.0
 -1.800000042000e-01  -9.447619767600e-02  0.0
 -1.900000036000e-01  -1.016825497380e-01  0.0
 -2.000000030000e-01  -1.088889018000e-01  0.0
 -1.500000060000e-01  -8.257143347200e-02  0.0
 -1.600000054000e-01  -8.977778553400e-02  0.0
 -1.700000048000e-01  -9.698413759600e-02  0.0
 -1.800000042000e-01  -1.041904896580e-01  0.0
 -1.900000036000e-01  -1.113968417200e-01  0.0
 -1.500000060000e-01  -9.228572545400e-02  0.0
 -1.600000054000e-01  -9.949207751600e-02  0.0
 -1.700000048000e-01  -1.066984295780e-01  0.0
 -1.800000042000e-01  -1.139047816400e-01  0.0
 -1.500000060000e-01  -1.020000174360e-01  0.0
 -1.600000054000e-01  -1.092063694980e-01  0.0
 -1.700000048000e-01  -1.164127215600e-01  0.0
 -1.500000060000e-01  -1.117143094180e-01  0.0
 -1.600000054000e-01  -1.189206614800e-01  0.0
 -1.500000060000e-01  -1.214286014000e-01  0.0
  1.832975030000e+00  -4.625000060000e-02  0.0
  1.841380024000e+00  -7.700000108000e-02  0.0
  1.849785018000e+00  -1.077500015600e-01  0.0
  1.858190012000e+00  -1.385000020400e-01  0.0
  1.866595006000e+00  -1.692500025200e-01  0.0
  1.875000000000e+00  -2.000000030000e-01  0.0
  1.866380024000e+00  -5.649999976400e-02  0.0
  1.874785018000e+00  -8.725000024400e-02  0.0
  1.883190012000e+00  -1.180000007240e-01  0.0
  1.891595006000e+00  -1.487500012040e-01  0.0
  1.900000000000e+00  -1.795000016840e-01  0.0
  1.899785018000e+00  -6.674999892800e-02  0.0
  1.908190012000e+00  -9.749999940800e-02  0.0
  1.916595006000e+00  -1.282499998880e-01  0.0
  1.925000000000e+00  -1.590000003680e-01  0.0
  1.933190012000e+00  -7.699999809200e-02  0.0
  1.941595006000e+00  -1.077499985720e-01  0.0
  1.950000000000e+00  -1.384999990520e-01  0.0
  1.966595006000e+00  -8.724999725600e-02  0.0
  1.975000000000e+00  -1.179999977360e-01  0.0
  2.000000000000e+00  -9.749999642000e-02  0.0
 -1.500000060000e-01  -1.700000018000e-01  0.0
 -1.444000050800e-01  -1.630000025200e-01  0.0
 -1.388000041600e-01  -1.560000032400e-01  0.0
 -1.332000032400e-01  -1.490000039600e-01  0.0
 -1.276000023200e-01  -1.420000046800e-01  0.0
 -1.220000014000e-01  -1.350000054000e-01  0.0
 -1.500000060000e-01  -1.602857217200e-01  0.0
 -1.444000050800e-01  -1.532857224400e-01  0.0
 -1.388000041600e-01  -1.462857231600e-01  0.0
 -1.332000032400e-01  -1.392857238800e-01  0.0
 -1.276000023200e-01  -1.322857246000e-01  0.0
 -1.500000060000e-01  -1.505714416400e-01  0.0
 -1.444000050800e-01  -1.435714423600e-01  0.0
 -1.388000041600e-01  -1.365714430800e-01  0.0
 -1.332000032400e-01  -1.295714438000e-01  0.0
 -1.500000060000e-01  -1.408571615600e-01  0.0
 -1.444000050800e-01  -1.338571622800e-01  0.0
 -1.388000041600e-01  -1.268571630000e-01  0.0
 -1.500000060000e-01  -1.311428814800e-01  0.0
 -1.444000050800e-01  -1.241428822000e-01  0.0
 -1.500000060000e-01  -1.214286014000e-01  0.0
  2.849999964000e-01  -2.333333530000e-02  0.0
  2.844999968800e-01  -4.666666836000e-02  0.0
  2.839999973600e-01  -7.000000142000e-02  0.0
  2.834999978400e-01  -9.333333448000e-02  0.0
  2.829999983200e-01  -1.166666675400e-01  0.0
  2.824999988000e-01  -1.400000006000e-01  0.0
  2.979999959200e-01  -3.266666830000e-02  0.0
  2.974999964000e-01  -5.600000136000e-02  0.0
  2.969999968800e-01  -7.933333442000e-02  0.0
  2.964999973600e-01  -1.026666674800e-01  0.0
  2.959999978400e-01  -1.260000005400e-01  0.0
  3.109999954400e-01  -4.200000130000e-02  0.0
  3.104999959200e-01  -6.533333436000e-02  0.0
  3.099999964000e-01  -8.866666742000e-02  0.0
  3.094999968800e-01  -1.120000004800e-01  0.0
  3.239999949600e-01  -5.133333430000e-02  0.0
  3.234999954400e-01  -7.466666736000e-02  0.0
  3.229999959200e-01  -9.800000042000e-02  0.0
  3.369999944800e-01  -6.066666730000e-02  0.0
  3.364999949600e-01  -8.400000036000e-02  0.0
  3.499999940000e-01  -7.000000030000e-02  0.0
 -1.071429029000e-01  -1.700000018000e-01  0.0
 -9.857146590000e-02  -1.700000018000e-01  0.0
 -9.000002890000e-02  -1.700000018000e-01  0.0
 -8.142859190000e-02  -1.700000018000e-01  0.0
 -7.285715490000e-02  -1.700000018000e-01  0.0
 -6.428571790000e-02  -1.700000018000e-01  0.0
 -1.037143230360e-01  -1.630000025200e-01  0.0
 -9.514288603600e-02  -1.630000025200e-01  0.0
 -8.657144903600e-02  -1.630000025200e-01  0.0
 -7.800001203600e-02  -1.630000025200e-01  0.0
 -6.942857503600e-02  -1.630000025200e-01  0.0
 -1.002857431720e-01  -1.560000032400e-01  0.0
 -9.171430617200e-02  -1.560000032400e-01  0.0
 -8.314286917200e-02  -1.560000032400e-01  0.0
 -7.457143217200e-02  -1.560000032400e-01  0.0
 -9.685716330800e-02  -1.490000039600e-01  0.0
 -8.828572630800e-02  -1.490000039600e-01  0.0
 -7.971428930800e-02  -1.490000039600e-01  0.0
 -9.342858344400e-02  -1.420000046800e-01  0.0
 -8.485714644400e-02  -1.420000046800e-01  0.0
 -9.000000358000e-02  -1.350000054000e-01  0.0
 -1.312499940000e-01  -2.000000030000e-01  0.0
 -1.264285757800e-01  -1.940000027600e-01  0.0
 -1.216071575600e-01  -1.880000025200e-01  0.0
 -1.167857393400e-01  -1.820000022800e-01  0.0
 -1.119643211200e-01  -1.760000020400e-01  0.0
 -1.071429029000e-01  -1.700000018000e-01  0.0
 -1.349999964000e-01  -1.940000027600e-01  0.0
 -1.301785781800e-01  -1.880000025200e-01  0.0
 -1.253571599600e-01  -1.820000022800e-01  0.0
 -1.205357417400e-01  -1.760000020400e-01  0.0
 -1.157143235200e-01  -1.700000018000e-01  0.0
 -1.387499988000e-01  -1.880000025200e-01  0.0
 -1.339285805800e-01  -1.820000022800e-01  0.0
 -1.291071623600e-01  -1.760000020400e-01  0.0
 -1.242857441400e-01  -1.700000018000e-01  0.0
 -1.425000012000e-01  -1.820000022800e-01  0.0
 -1.376785829800e-01  -1.760000020400e-01  0.0
 -1.328571647600e-01  -1.700000018000e-01  0.0
 -1.462500036000e-01  -1.760000020400e-01  0.0
 -1.414285853800e-01  -1.700000018000e-01  0.0
 -1.500000060000e-01  -1.700000018000e-01  0.0
[...]
POINT_DATA 7854
SCALARS field1 double 1
LOOKUP_TABLE default
 -3.615076539962e-06 
  1.421231878837e-02 
  1.704644448228e-02 
  1.774182604463e-02 
  1.970429168035e-02 
  2.321904907100e-02 
 -3.409349642575e-06 
  1.172920066166e-02 
  1.400993653919e-02 
  1.558280728113e-02 
  1.903461345992e-02 
  2.031365142201e-06 
  8.935027167266e-03 
  1.130933945820e-02 
  1.462923453817e-02 
  8.009921550519e-06 
  6.349206260320e-03 
  9.988261811297e-03 
 -2.952813659146e-06 
  5.105173380990e-03 
  2.526676220561e-06 
  4.482596206347e-02 
  4.313154779634e-02 
  4.003505713574e-02 
  3.383892484869e-02 
  2.175693054551e-02 
 -6.206293259754e-07 
  4.390641388201e-02 
  4.081087529025e-02 
  3.455512033621e-02 
  2.225609097287e-02 
 -2.211320957252e-07 
  4.153599265284e-02 
  3.522432370603e-02 
  2.272724084664e-02 
 -2.549134180428e-07 
  3.584917295063e-02 
  2.316825301562e-02 
 -2.476815765875e-07 
  2.357762915278e-02 
 -1.380452634135e-07 
 -3.678560424448e-07 
  2.321986937313e-02 
  2.675510045169e-02 
  3.048840757740e-02 
  3.368409416478e-02 
  3.624466530127e-02 
  3.831490443965e-02 
  2.716601295416e-02 
  3.027808963510e-02 
  3.338921878090e-02 
  3.603011843116e-02 
  3.813583327297e-02 
  3.088115023550e-02 
  3.360893110546e-02 
  3.616462409455e-02 
  3.827695308776e-02 
  3.436298343955e-02 
  3.674183820749e-02 
  3.878421553845e-02 
  3.761279345743e-02 
  3.966394496526e-02 
  4.063247753680e-02 
  3.831412005988e-02 
  3.624474850174e-02 
  3.368316184053e-02 
  3.048879430067e-02 
  2.675480431584e-02 
  2.322184348545e-02 
  3.667364537310e-02 
  3.418610302401e-02 
  3.110873559840e-02 
  2.728416756090e-02 
  2.285896080056e-02 
  3.500822054710e-02 
  3.213232262857e-02 
  2.853995828249e-02 
  2.404898725297e-02 
  3.340552618679e-02 
  3.016294143634e-02 
  2.605339577604e-02 
  3.193208003665e-02 
  2.831009957804e-02 
  3.049706105932e-02 
  4.473349146266e-02 
  4.479526232439e-02 
  4.449793059846e-02 
  4.377515604899e-02 
  4.252777294539e-02 
  4.063372678198e-02 
  4.376714092259e-02 
  4.337867717401e-02 
  4.260552170046e-02 
  4.138335828460e-02 
  3.966348094847e-02 
  4.261734701612e-02 
  4.179437696869e-02 
  4.053179627714e-02 
  3.878362477536e-02 
  4.131420028256e-02 
  4.004600225756e-02 
  3.827686404868e-02 
  3.987076869744e-02 
  3.813627599549e-02 
  3.831335589425e-02 
  4.570119292251e-02 
  3.794011940963e-02 
  3.904885356633e-02 
  3.931410328646e-02 
  4.256738307757e-02 
  5.059975816113e-04 
  4.052001458132e-02 
  4.066298592794e-02 
  3.968414204565e-02 
  3.982539145035e-02 
  3.764289440518e-02 
  4.038557979177e-02 
  4.070704094484e-02 
  3.946319089103e-02 
  4.024084018907e-02 
  4.027497124854e-02 
  4.006882877292e-02 
  3.891975680307e-02 
  4.077876398929e-02 
  3.871246845360e-02 
  4.190635718874e-02 
  3.049730503045e-02 
  3.280333576682e-02 
  3.477333102887e-02 
  3.651065702406e-02 
  3.806173181335e-02 
  3.943029811813e-02 
  3.193099235320e-02 
  3.405560770164e-02 
  3.592974351140e-02 
  3.758070496437e-02 
  3.902871582299e-02 
  3.340544822526e-02 
  3.542310419690e-02 
  3.717916849205e-02 
  3.869779933777e-02 
  3.500814512201e-02 
  3.686841531514e-02 
  3.846066099900e-02 
  3.667243171998e-02 
  3.832384823525e-02 
  3.831401152849e-02 
  4.109660589963e-02 
  4.001775238517e-02 
  4.051760088436e-02 
  4.063580290258e-02 
  4.064380683118e-02 
  4.221316499082e-02 
  4.032897419065e-02 
  4.031917645668e-02 
  4.057849742367e-02 
  4.054931052278e-02 
  4.072979067176e-02 
  4.037784276660e-02 
  4.052399142838e-02 
  4.058847690976e-02 
  4.052271909127e-02 
  4.071558614847e-02 
  4.059063371919e-02 
  4.055996147344e-02 
  4.069477831377e-02 
  4.068663350719e-02 
  4.022165096762e-02 
  3.907036378372e-02 
  4.038997574897e-02 
  4.161331513243e-02 
  4.276008516238e-02 
  4.382997711663e-02 
  4.482852944269e-02 
  4.012300968591e-02 
  4.137145425902e-02 
  4.255041130084e-02 
  4.366164752978e-02 
  4.470590920134e-02 
  4.098492779667e-02 
  4.217105873621e-02 
  4.330594609703e-02 
  4.439178591205e-02 
  4.180206030036e-02 
  4.293527168590e-02 
  4.404037540948e-02 
  4.259436199301e-02 
  4.369209591941e-02 
  4.336871756707e-02 
  4.554960635647e-08 
  1.848152945210e-02 
  2.895085563599e-02 
  3.448613296287e-02 
  3.738962851457e-02 
  3.907064168592e-02 
  1.747449669313e-02 
  2.752572951320e-02 
  3.295619203008e-02 
  3.588961599583e-02 
  3.766796003397e-02 
  2.592106738530e-02 
  3.125441176713e-02 
  3.424440483318e-02 
  3.613146600175e-02 
  2.933749095437e-02 
  3.241494849546e-02 
  3.444705474463e-02 
  3.035695326139e-02 
  3.258176925411e-02 
  3.049681304928e-02 
  3.943279296712e-02 
  4.021457086993e-02 
  4.099263748482e-02 
  4.177701683323e-02 
  4.256557877365e-02 
  4.336812671556e-02 
  4.019651863470e-02 
  4.088650713012e-02 
  4.159431046361e-02 
  4.232357218411e-02 
  4.307511037607e-02 
  4.089191354653e-02 
  4.150082142009e-02 
  4.214271529420e-02 
  4.282303148222e-02 
  4.151000953954e-02 
  4.204023457062e-02 
  4.262138454217e-02 
  4.203379521830e-02 
  4.248732607760e-02 
  4.243555476065e-02 
  4.336790577705e-02 
  4.256573290132e-02 
  4.177699283747e-02 
  4.099270802760e-02 
  4.021459984935e-02 
  3.943305634411e-02 
  4.259478807025e-02 
  4.176912930764e-02 
  4.093530883073e-02 
  4.009160867912e-02 
  3.923373973348e-02 
  4.180190482719e-02 
  4.093221015912e-02 
  4.004072766558e-02 
  3.912423049633e-02 
  4.098516759230e-02 
  4.006262993551e-02 
  3.910384190156e-02 
  4.012313105516e-02 
  3.913947615261e-02 
  3.907113361611e-02 
  4.584768147961e-02 
  4.489647381584e-02 
  4.411940322669e-02 
  4.347291194123e-02 
  4.292357548484e-02 
  4.243567852371e-02 
  4.562305668060e-02 
  4.468111867469e-02 
  4.386512605796e-02 
  4.314233538067e-02 
  4.248725344988e-02 
  4.521313661123e-02 
  4.427419325358e-02 
  4.341776849670e-02 
  4.262136326405e-02 
  4.467425249287e-02 
  4.372563105300e-02 
  4.282300506409e-02 
  4.404716252688e-02 
  4.307500522365e-02 
  4.336856206168e-02 
  3.943200279095e-02 
  4.019656836886e-02 
  4.089185593853e-02 
  4.150997799553e-02 
  4.203397012439e-02 
  4.243521624277e-02 
  3.902840359456e-02 
  3.986387001065e-02 
  4.062499464555e-02 
  4.129656303187e-02 
  4.186159392081e-02 
  3.869801435352e-02 
  3.961767103324e-02 
  4.045130488037e-02 
  4.118478618417e-02 
  3.846004313338e-02 
  3.946982669797e-02 
  4.038386064880e-02 
  3.832386720629e-02 
  3.943343580688e-02 
  3.831313205426e-02 
  4.584725632141e-02 
  4.562304547361e-02 
  4.521309089520e-02 
  4.467429420719e-02 
  4.404700453964e-02 
  4.336945879853e-02 
  4.663595431473e-02 
  4.624155557226e-02 
  4.571604980069e-02 
  4.510615127899e-02 
  4.444247773512e-02 
  4.739442194510e-02 
  4.683789551181e-02 
  4.620540937395e-02 
  4.553351663748e-02 
  4.809420129122e-02 
  4.739240602023e-02 
  4.666832526633e-02 
  4.871870918853e-02 
  4.789141197267e-02 
  4.925027695098e-02 
  3.907103750059e-02 
  3.913984363650e-02 
  3.910410298950e-02 
  3.912428179630e-02 
  3.923369736323e-02 
  3.943209803651e-02 
  3.766821301765e-02 
  3.774285518374e-02 
  3.775344498078e-02 
  3.784970171790e-02 
  3.806152646146e-02 
  3.613160859246e-02 
  3.623748429576e-02 
  3.631468568993e-02 
  3.651079825417e-02 
  3.444727438304e-02 
  3.459915505681e-02 
  3.477276445063e-02 
  3.258190148958e-02 
  3.280310043318e-02 
  3.049705592222e-02 
 -1.042078058104e-07 
 -2.354492517710e-07 
 -1.643746751437e-07 
 -2.824548928747e-07 
 -2.236072290569e-07 
 -9.116774128078e-07 
  2.576865982601e-02 
  2.570095500696e-02 
  2.550514437168e-02 
  2.520799894282e-02 
  2.484313349174e-02 
  3.922569481899e-02 
  3.909248920075e-02 
  3.876391208045e-02 
  3.828919058782e-02 
  4.550287552720e-02 
  4.529478920159e-02 
  4.487280961973e-02 
  4.813714223099e-02 
  4.784455579857e-02 
  4.916547088738e-02 
  4.473238900672e-02 
  4.376587278959e-02 
  4.261705193229e-02 
  4.131465322425e-02 
  3.987100073058e-02 
  3.831314607992e-02 
  4.373873557995e-02 
  4.288388323471e-02 
  4.187502998660e-02 
  4.071919024523e-02 
  3.943334400296e-02 
  4.302360806336e-02 
  4.228995801386e-02 
  4.140398247808e-02 
  4.038397812660e-02 
  4.257514834839e-02 
  4.195540788728e-02 
  4.118495155539e-02 
  4.239169718158e-02 
  4.186160477380e-02 
  4.243488199739e-02 
  5.224094328297e-02 
  5.111192933928e-02 
  4.928182105975e-02 
  4.748587221247e-02 
  4.596027909412e-02 
  4.473444376642e-02 
  5.278604089529e-02 
  5.080006052268e-02 
  4.878992831101e-02 
  4.702849007825e-02 
  4.552911385669e-02 
  5.209206850267e-02 
  4.988173665896e-02 
  4.789587000565e-02 
  4.616277768997e-02 
  5.078601359379e-02 
  4.859472958884e-02 
  4.664464077661e-02 
  4.914958664407e-02 
  4.700324360557e-02 
  4.727242609724e-02 
  5.224088939767e-02 
  5.038271566573e-02 
  4.829347949775e-02 
  4.597303887493e-02 
  4.341935406888e-02 
  4.063247703050e-02 
  5.111206884589e-02 
  4.929758530694e-02 
  4.725878431197e-02 
  4.500409356417e-02 
  4.252750599041e-02 
  4.928246038176e-02 
  4.764440587815e-02 
  4.580262515929e-02 
  4.377450611525e-02 
  4.748533670634e-02 
  4.608228823646e-02 
  4.449908070725e-02 
  4.595967266015e-02 
  4.479529187976e-02 
  4.473541863861e-02 
  5.224084361541e-02 
  5.278540034966e-02 
  5.209149188989e-02 
  5.078630875874e-02 
  4.914978764838e-02 
  4.727271660895e-02 
  5.386688913256e-02 
  5.413361766272e-02 
  5.309206323123e-02 
  5.145892522709e-02 
  4.955061654848e-02 
  5.525948216469e-02 
  5.526377998884e-02 
  5.390732869043e-02 
  5.198007730777e-02 
  5.641939538480e-02 
  5.617578660836e-02 
  5.453200400230e-02 
  5.734848935835e-02 
  5.686821836825e-02 
  5.804396068749e-02 
  4.727248345405e-02 
  4.700230464140e-02 
  4.664427926630e-02 
  4.616338003586e-02 
  4.552995309430e-02 
  4.473185625848e-02 
  4.536175007843e-02 
  4.526760764328e-02 
  4.511579259373e-02 
  4.486032865716e-02 
  4.445708623380e-02 
  4.355392749108e-02 
  4.368111659249e-02 
  4.376984562049e-02 
  4.376191596655e-02 
  4.182530195591e-02 
  4.223599984879e-02 
  4.261698216488e-02 
  4.017779965927e-02 
  4.094696445629e-02 
  3.863090463103e-02 
  3.728533635347e-02 
  3.962379617687e-02 
  4.177611325304e-02 
  4.375065986947e-02 
  4.557285247184e-02 
  4.727230242785e-02 
  3.712140513902e-02 
  3.955764079667e-02 
  4.171051008183e-02 
  4.363352547801e-02 
  4.536165850787e-02 
  3.719793302808e-02 
  3.963725736808e-02 
  4.173150821390e-02 
  4.355378220967e-02 
  3.749403617613e-02 
  3.985105120124e-02 
  4.182551630533e-02 
  3.798304932844e-02 
  4.017780763869e-02 
  3.863121802058e-02 
  4.727344593820e-02 
  4.745020978862e-02 
  4.758735441811e-02 
  4.766916366441e-02 
  4.770694440543e-02 
  4.770966760580e-02 
  4.955061199746e-02 
  4.985853882751e-02 
  5.004572789673e-02 
  5.012492248896e-02 
  5.010467050717e-02 
  5.198081541257e-02 
  5.237504003043e-02 
  5.260123979477e-02 
  5.266836771379e-02 
  5.453160984191e-02 
  5.498757344294e-02 
  5.523542867872e-02 
  5.686839323370e-02 
  5.735801992247e-02 
  5.804291209926e-02 
  4.473034323881e-02 
  4.393927351919e-02 
  4.324274144561e-02 
  4.266277655085e-02 
  4.222738141031e-02 
  4.202793016516e-02 
  4.445744443831e-02 
  4.348586230368e-02 
  4.260547560737e-02 
  4.182777770303e-02 
  4.120953904151e-02 
  4.376158505813e-02 
  4.258413993692e-02 
  4.146169123381e-02 
  4.041450168445e-02 
  4.261682436140e-02 
  4.115862416910e-02 
  3.968761890607e-02 
  4.094690161806e-02 
  3.908025809426e-02 
  3.863143237046e-02 
  4.264621011551e-02 
  4.088125603689e-02 
  4.028445443571e-02 
  4.039324525412e-02 
  4.120502194478e-02 
  4.212341316714e-02 
  4.048009039098e-02 
  4.059978255463e-02 
  4.063246919006e-02 
  4.115490348272e-02 
  4.204720564777e-02 
  4.042646136164e-02 
  4.018803866247e-02 
  4.000472743893e-02 
  3.955008637849e-02 
  3.999705488308e-02 
  4.048921986977e-02 
  3.973917607096e-02 
  3.374338511530e-02 
  3.853546784972e-02 
  2.354886936578e-04 
  3.660458342902e-02 
  3.840012130073e-02 
  3.971592277977e-02 
  4.071212265176e-02 
  4.146304068474e-02 
  4.203191420034e-02 
  3.846440558768e-02 
  3.984705325723e-02 
  4.084684239723e-02 
  4.159241348460e-02 
  4.213596510551e-02 
  4.045760651496e-02 
  4.139652951960e-02 
  4.205339453869e-02 
  4.252880444722e-02 
  4.252021613840e-02 
  4.299891867406e-02 
  4.329913878310e-02 
  4.458103947821e-02 
  4.460147779529e-02 
  4.657257364493e-02 
  4.202764618373e-02 
  4.222741735558e-02 
  4.266269083190e-02 
  4.324293962857e-02 
  4.393923953746e-02 
  4.473080979930e-02 
  4.265116408240e-02 
  4.266141392519e-02 
  4.288342682648e-02 
  4.325441326632e-02 
  4.373861679365e-02 
  4.296656822027e-02 
  4.281171378636e-02 
  4.284980029271e-02 
  4.302306659785e-02 
  4.301113534595e-02 
  4.271387217705e-02 
  4.257547295218e-02 
  4.282743798162e-02 
  4.239153531857e-02 
  4.243552496776e-02 
  1.525011280281e-02 
  1.871827290482e-02 
  2.172895065003e-02 
  2.433448078747e-02 
  2.660300063058e-02 
  2.860447278393e-02 
  1.662788824322e-02 
  1.997519390127e-02 
  2.285442396237e-02 
  2.532854648438e-02 
  2.746057473234e-02 
  1.837929993180e-02 
  2.161185017926e-02 
  2.430603552469e-02 
  2.659267833867e-02 
  2.054654487675e-02 
  2.359536983985e-02 
  2.605352659964e-02 
  2.312321358465e-02 
  2.589317982031e-02 
  2.603831188719e-02 
  2.860182148549e-02 
  3.133838002294e-02 
  3.361827644260e-02 
  3.553923246454e-02 
  3.718886854728e-02 
  3.863287045829e-02 
  2.966942493419e-02 
  3.219722067234e-02 
  3.428625227418e-02 
  3.605071966890e-02 
  3.756277245505e-02 
  3.107517515531e-02 
  3.329629232927e-02 
  3.513833621775e-02 
  3.670383424516e-02 
  3.275367525808e-02 
  3.460151834866e-02 
  3.614703436439e-02 
  3.462234162830e-02 
  3.606011291558e-02 
  3.660606762171e-02 
  3.660286976510e-02 
  3.540474146027e-02 
  3.388104389255e-02 
  3.195597911571e-02 
  2.942861085397e-02 
  2.603898956982e-02 
  3.462155970284e-02 
  3.307766050806e-02 
  3.119464477895e-02 
  2.885426296337e-02 
  2.589320563362e-02 
  3.275361239592e-02 
  3.092171913980e-02 
  2.872099150172e-02 
  2.605338803997e-02 
  3.107487613191e-02 
  2.902382770219e-02 
  2.659243294766e-02 
  2.966875349448e-02 
  2.746074810399e-02 
  2.860412194486e-02 
  2.860094594602e-02 
  2.976090753052e-02 
  3.142880456009e-02 
  3.333708149957e-02 
  3.532022989467e-02 
  3.728497178444e-02 
  3.133865893722e-02 
  3.232812061379e-02 
  3.373876041656e-02 
  3.538149709162e-02 
  3.712120461213e-02 
  3.361836363730e-02 
  3.449594206915e-02 
  3.573928017516e-02 
  3.719755253872e-02 
  3.553902643891e-02 
  3.635931591788e-02 
  3.749389853591e-02 
  3.718903045748e-02 
  3.798319098935e-02 
  3.863160053526e-02 
  4.584758000199e-02 
  4.621950848481e-02 
  4.651322953731e-02 
  4.671321982819e-02 
  4.677486051731e-02 
  4.657337759264e-02 
  4.513610732010e-02 
  4.527804348341e-02 
  4.527324917034e-02 
  4.507364653134e-02 
  4.460134602087e-02 
  4.436281737802e-02 
  4.425242109207e-02 
  4.392270701855e-02 
  4.329935853337e-02 
  4.356210784424e-02 
  4.318928341433e-02 
  4.252862554870e-02 
  4.276952034468e-02 
  4.213606340830e-02 
  4.203130865150e-02 
  3.660731128598e-02 
  3.605979698831e-02 
  3.614732958344e-02 
  3.670371705398e-02 
  3.756289941745e-02 
  3.863241283471e-02 
  3.839973629857e-02 
  3.788346304221e-02 
  3.792037957992e-02 
  3.835617282051e-02 
  3.908093672035e-02 
  3.971628740069e-02 
  3.928880837684e-02 
  3.931425809009e-02 
  3.968833373955e-02 
  4.071197910116e-02 
  4.037349435730e-02 
  4.041530564738e-02 
  4.146328103553e-02 
  4.120990316210e-02 
  4.202996396328e-02 
  4.584816141583e-02 
  4.513582965363e-02 
  4.436253774971e-02 
  4.356156584186e-02 
  4.276916256113e-02 
  4.202898129566e-02 
  4.489643465632e-02 
  4.433801296838e-02 
  4.376024083221e-02 
  4.318782376488e-02 
  4.265099865543e-02 
  4.411954623083e-02 
  4.371740290260e-02 
  4.332646733234e-02 
  4.296671521624e-02 
  4.347281498241e-02 
  4.322549125588e-02 
  4.301111433232e-02 
  4.292370561565e-02 
  4.282783880097e-02 
  4.243523988822e-02 
  2.860282814583e-02 
  2.660346948766e-02 
  2.433428252131e-02 
  2.172862268391e-02 
  1.871831357585e-02 
  1.525105906461e-02 
  2.726209464779e-02 
  2.508943783215e-02 
  2.261058842903e-02 
  1.978041378818e-02 
  1.656504780478e-02 
  2.625027497792e-02 
  2.395809263742e-02 
  2.136052221716e-02 
  1.842002929253e-02 
  2.560611276696e-02 
  2.327505816196e-02 
  2.065870110870e-02 
  2.535616371517e-02 
  2.306946170803e-02 
  2.549138037533e-02 
  4.925120977261e-02 
  4.789141596325e-02 
  4.666862316291e-02 
  4.553340077400e-02 
  4.444265408610e-02 
  4.336897024271e-02 
  4.823741170811e-02 
  4.702660191233e-02 
  4.588518591746e-02 
  4.478241596460e-02 
  4.369246829188e-02 
  4.729619952137e-02 
  4.618659186863e-02 
  4.510832314503e-02 
  4.404033859568e-02 
  4.645493518471e-02 
  4.542834631373e-02 
  4.439223063278e-02 
  4.572629245055e-02 
  4.470596520617e-02 
  4.483178606396e-02 
  4.570706855823e-02 
  4.041827435843e-02 
  4.035403783355e-02 
  4.026076224861e-02 
  4.072729026417e-02 
  4.205118111984e-02 
  4.119465061429e-02 
  4.030728114933e-02 
  4.042921496483e-02 
  4.045876917300e-02 
  4.091836778939e-02 
  4.029003631062e-02 
  4.058766791545e-02 
  4.047536397025e-02 
  4.090389510343e-02 
  4.011145128053e-02 
  4.023396999406e-02 
  4.226303079744e-02 
  4.090686181585e-02 
  4.243516449744e-02 
  4.217380624858e-02 
  5.169910754175e-02 
  5.085200034931e-02 
  5.014137399562e-02 
  4.956200747268e-02 
  4.908513623356e-02 
  4.845350235584e-02 
  5.212207238378e-02 
  5.120535681924e-02 
  5.044387724733e-02 
  4.983562020258e-02 
  4.932798290812e-02 
  5.244502752315e-02 
  5.146805177216e-02 
  5.067204794540e-02 
  5.004168144772e-02 
  5.265536269212e-02 
  5.163819461990e-02 
  5.082299295378e-02 
  5.275257374015e-02 
  5.171551568464e-02 
  5.273637679874e-02 
  5.169850173394e-02 
  5.140579671228e-02 
  5.100977213892e-02 
  5.051182368399e-02 
  4.991926664258e-02 
  4.925021329270e-02 
  5.004386037126e-02 
  4.969732538992e-02 
  4.927660984203e-02 
  4.878827850683e-02 
  4.823746057657e-02 
  4.862356073500e-02 
  4.822825607891e-02 
  4.778424202775e-02 
  4.729599955706e-02 
  4.736815542800e-02 
  4.693205741376e-02 
  4.645498405016e-02 
  4.618679441617e-02 
  4.572601164803e-02 
  4.483274312385e-02 
  4.584708735602e-02 
  4.694938931665e-02 
  4.833669271736e-02 
  5.013483644690e-02 
  5.248675594981e-02 
  5.553752829332e-02 
  4.621928860016e-02 
  4.743456144159e-02 
  4.903729306981e-02 
  5.118767043824e-02 
  5.402989791668e-02 
  4.651287301767e-02 
  4.788660123098e-02 
  4.977419505245e-02 
  5.234225528253e-02 
  4.671300843922e-02 
  4.828872008219e-02 
  5.050403792711e-02 
  4.677492788395e-02 
  4.856229941904e-02 
  4.657205071474e-02 
  5.553775895488e-02 
  5.248681764190e-02 
  5.013493327801e-02 
  4.833675264479e-02 
  4.694946501319e-02 
  4.584697921678e-02 
  5.396960173964e-02 
  5.146736275410e-02 
  4.948914809181e-02 
  4.791600615105e-02 
  4.663554907419e-02 
  5.256535055398e-02 
  5.049718043997e-02 
  4.880265766512e-02 
  4.739401541115e-02 
  5.133051419152e-02 
  4.958290524067e-02 
  4.809360012574e-02 
  5.023432423927e-02 
  4.871799606208e-02 
  4.924886138751e-02 
  6.149070629521e-02 
  6.076125330859e-02 
  5.978342510399e-02 
  5.856831194887e-02 
  5.713815647913e-02 
  5.554004810720e-02 
  5.797176899081e-02 
  5.720827156302e-02 
  5.626847256199e-02 
  5.517785079060e-02 
  5.396937478931e-02 
  5.508735570732e-02 
  5.434871370140e-02 
  5.350140040511e-02 
  5.256567498143e-02 
  5.275622018541e-02 
  5.207679080063e-02 
  5.133023303363e-02 
  5.085176901253e-02 
  5.023427386104e-02 
  4.924760247446e-02 
  5.442131557296e-02 
  5.391625553213e-02 
  5.219728242964e-02 