# vtk DataFile Version 2
NuDG++ 2D simulation
ASCII
DATASET UNSTRUCTURED_GRID

POINTS 7854 double
 -1.656250060000e-01  -2.000000030000e-01  0.0
 -1.725000054000e-01  -1.908888817000e-01  0.0
 -1.793750048000e-01  -1.817777604000e-01  0.0
 -1.862500042000e-01  -1.726666391000e-01  0.0
 -1.931250036000e-01  -1.635555178000e-01  0.0
 -2.000000030000e-01  -1.544443965000e-01  0.0
 -1.725000054000e-01  -2.000000030000e-01  0.0
 -1.793750048000e-01  -1.908888817000e-01  0.0
 -1.862500042000e-01  -1.817777604000e-01  0.0
 -1.931250036000e-01  -1.726666391000e-01  0.0
 -2.000000030000e-01  -1.635555178000e-01  0.0
 -1.793750048000e-01  -2.000000030000e-01  0.0
 -1.862500042000e-01  -1.908888817000e-01  0.0
 -1.931250036000e-01  -1.817777604000e-01  0.0
 -2.000000030000e-01  -1.726666391000e-01  0.0
 -1.862500042000e-01  -2.000000030000e-01  0.0
 -1.931250036000e-01  -1.908888817000e-01  0.0
 -2.000000030000e-01  -1.817777604000e-01  0.0
 -1.931250036000e-01  -2.000000030000e-01  0.0
 -2.000000030000e-01  -1.908888817000e-01  0.0
 -2.000000030000e-01  -2.000000030000e-01  0.0
 -6.428571790000e-02  -1.700000018000e-01  0.0
 -7.080357372400e-02  -1.760000020400e-01  0.0
 -7.732142954800e-02  -1.820000022800e-01  0.0
 -8.383928537200e-02  -1.880000025200e-01  0.0
 -9.035714119600e-02  -1.940000027600e-01  0.0
 -9.687499702000e-02  -2.000000030000e-01  0.0
 -6.392857432000e-02  -1.760000020400e-01  0.0
 -7.044643014400e-02  -1.820000022800e-01  0.0
 -7.696428596800e-02  -1.880000025200e-01  0.0
 -8.348214179200e-02  -1.940000027600e-01  0.0
 -8.999999761600e-02  -2.000000030000e-01  0.0
 -6.357143074000e-02  -1.820000022800e-01  0.0
 -7.008928656400e-02  -1.880000025200e-01  0.0
 -7.660714238800e-02  -1.940000027600e-01  0.0
 -8.312499821200e-02  -2.000000030000e-01  0.0
 -6.321428716000e-02  -1.880000025200e-01  0.0
 -6.973214298400e-02  -1.940000027600e-01  0.0
 -7.624999880800e-02  -2.000000030000e-01  0.0
 -6.285714358000e-02  -1.940000027600e-01  0.0
 -6.937499940400e-02  -2.000000030000e-01  0.0
 -6.250000000000e-02  -2.000000030000e-01  0.0
 -2.000000030000e-01  -1.544443965000e-01  0.0
 -1.900000036000e-01  -1.478412374800e-01  0.0
 -1.800000042000e-01  -1.412380784600e-01  0.0
 -1.700000048000e-01  -1.346349194400e-01  0.0
 -1.600000054000e-01  -1.280317604200e-01  0.0
 -1.500000060000e-01  -1.214286014000e-01  0.0
 -2.000000030000e-01  -1.453332975600e-01  0.0
 -1.900000036000e-01  -1.387301385400e-01  0.0
 -1.800000042000e-01  -1.321269795200e-01  0.0
 -1.700000048000e-01  -1.255238205000e-01  0.0
 -1.600000054000e-01  -1.189206614800e-01  0.0
 -2.000000030000e-01  -1.362221986200e-01  0.0
 -1.900000036000e-01  -1.296190396000e-01  0.0
 -1.800000042000e-01  -1.230158805800e-01  0.0
 -1.700000048000e-01  -1.164127215600e-01  0.0
 -2.000000030000e-01  -1.271110996800e-01  0.0
 -1.900000036000e-01  -1.205079406600e-01  0.0
 -1.800000042000e-01  -1.139047816400e-01  0.0
 -2.000000030000e-01  -1.180000007400e-01  0.0
 -1.900000036000e-01  -1.113968417200e-01  0.0
 -2.000000030000e-01  -1.088889018000e-01  0.0
 -1.500000060000e-01  -1.214286014000e-01  0.0
 -1.600000054000e-01  -1.280317604200e-01  0.0
 -1.700000048000e-01  -1.346349194400e-01  0.0
 -1.800000042000e-01  -1.412380784600e-01  0.0
 -1.900000036000e-01  -1.478412374800e-01  0.0
 -2.000000030000e-01  -1.544443965000e-01  0.0
 -1.500000060000e-01  -1.311428814800e-01  0.0
 -1.600000054000e-01  -1.377460405000e-01  0.0
 -1.700000048000e-01  -1.443491995200e-01  0.0
 -1.800000042000e-01  -1.509523585400e-01  0.0
 -1.900000036000e-01  -1.575555175600e-01  0.0
 -1.500000060000e-01  -1.408571615600e-01  0.0
 -1.600000054000e-01  -1.474603205800e-01  0.0
 -1.700000048000e-01  -1.540634796000e-01  0.0
 -1.800000042000e-01  -1.606666386200e-01  0.0
 -1.500000060000e-01  -1.505714416400e-01  0.0
 -1.600000054000e-01  -1.571746006600e-01  0.0
 -1.700000048000e-01  -1.637777596800e-01  0.0
 -1.500000060000e-01  -1.602857217200e-01  0.0
 -1.600000054000e-01  -1.668888807400e-01  0.0
 -1.500000060000e-01  -1.700000018000e-01  0.0
 -1.500000060000e-01  -7.285714149000e-02  0.0
 -1.600000054000e-01  -8.006349355200e-02  0.0
 -1.700000048000e-01  -8.726984561400e-02  0.0
 -1.800000042000e-01  -9.447619767600e-02  0.0
 -1.900000036000e-01  -1.016825497380e-01  0.0
 -2.000000030000e-01  -1.088889018000e-01  0.0
 -1.500000060000e-01  -8.257143347200e-02  0.0
 -1.600000054000e-01  -8.977778553400e-02  0.0
 -1.700000048000e-01  -9.698413759600e-02  0.0
 -1.800000042000e-01  -1.041904896580e-01  0.0
 -1.900000036000e-01  -1.113968417200e-01  0.0
 -1.500000060000e-01  -9.228572545400e-02  0.0
 -1.600000054000e-01  -9.949207751600e-02  0.0
 -1.700000048000e-01  -1.066984295780e-01  0.0
 -1.800000042000e-01  -1.139047816400e-01  0.0
 -1.500000060000e-01  -1.020000174360e-01  0.0
 -1.600000054000e-01  -1.092063694980e-01  0.0
 -1.700000048000e-01  -1.164127215600e-01  0.0
 -1.500000060000e-01  -1.117143094180e-01  0.0
 -1.600000054000e-01  -1.189206614800e-01  0.0
 -1.500000060000e-01  -1.214286014000e-01  0.0
  1.832975030000e+00  -4.625000060000e-02  0.0
  1.841380024000e+00  -7.700000108000e-02  0.0
  1.849785018000e+00  -1.077500015600e-01  0.0
  1.858190012000e+00  -1.385000020400e-01  0.0
  1.866595006000e+00  -1.692500025200e-01  0.0
  1.875000000000e+00  -2.000000030000e-01  0.0
  1.866380024000e+00  -5.649999976400e-02  0.0
  1.874785018000e+00  -8.725000024400e-02  0.0
  1.883190012000e+00  -1.180000007240e-01  0.0
  1.891595006000e+00  -1.487500012040e-01  0.0
  1.900000000000e+00  -1.795000016840e-01  0.0
  1.899785018000e+00  -6.674999892800e-02  0.0
  1.908190012000e+00  -9.749999940800e-02  0.0
  1.916595006000e+00  -1.282499998880e-01  0.0
  1.925000000000e+00  -1.590000003680e-01  0.0
  1.933190012000e+00  -7.699999809200e-02  0.0
  1.941595006000e+00  -1.077499985720e-01  0.0
  1.950000000000e+00  -1.384999990520e-01  0.0
  1.966595006000e+00  -8.724999725600e-02  0.0
  1.975000000000e+00  -1.179999977360e-01  0.0
  2.000000000000e+00  -9.749999642000e-02  0.0
 -1.500000060000e-01  -1.700000018000e-01  0.0
 -1.444000050800e-01  -1.630000025200e-01  0.0
 -1.388000041600e-01  -1.560000032400e-01  0.0
 -1.332000032400e-01  -1.490000039600e-01  0.0
 -1.276000023200e-01  -1.420000046800e-01  0.0
 -1.220000014000e-01  -1.350000054000e-01  0.0
 -1.500000060000e-01  -1.602857217200e-01  0.0
 -1.444000050800e-01  -1.532857224400e-01  0.0
 -1.388000041600e-01  -1.462857231600e-01  0.0
 -1.332000032400e-01  -1.392857238800e-01  0.0
 -1.276000023200e-01  -1.322857246000e-01  0.0
 -1.500000060000e-01  -1.505714416400e-01  0.0
 -1.444000050800e-01  -1.435714423600e-01  0.0
 -1.388000041600e-01  -1.365714430800e-01  0.0
 -1.332000032400e-01  -1.295714438000e-01  0.0
 -1.500000060000e-01  -1.408571615600e-01  0.0
 -1.444000050800e-01  -1.338571622800e-01  0.0
 -1.388000041600e-01  -1.268571630000e-01  0.0
 -1.500000060000e-01  -1.311428814800e-01  0.0
 -1.444000050800e-01  -1.241428822000e-01  0.0
 -1.500000060000e-01  -1.214286014000e-01  0.0
  2.849999964000e-01  -2.333333530000e-02  0.0
  2.844999968800e-01  -4.666666836000e-02  0.0
  2.839999973600e-01  -7.000000142000e-02  0.0
  2.834999978400e-01  -9.333333448000e-02  0.0
  2.829999983200e-01  -1.166666675400e-01  0.0
  2.824999988000e-01  -1.400000006000e-01  0.0
  2.979999959200e-01  -3.266666830000e-02  0.0
  2.974999964000e-01  -5.600000136000e-02  0.0
  2.969999968800e-01  -7.933333442000e-02  0.0
  2.964999973600e-01  -1.026666674800e-01  0.0
  2.959999978400e-01  -1.260000005400e-01  0.0
  3.109999954400e-01  -4.200000130000e-02  0.0
  3.104999959200e-01  -6.533333436000e-02  0.0
  3.099999964000e-01  -8.866666742000e-02  0.0
  3.094999968800e-01  -1.120000004800e-01  0.0
  3.239999949600e-01  -5.133333430000e-02  0.0
  3.234999954400e-01  -7.466666736000e-02  0.0
  3.229999959200e-01  -9.800000042000e-02  0.0
  3.369999944800e-01  -6.066666730000e-02  0.0
  3.364999949600e-01  -8.400000036000e-02  0.0
  3.499999940000e-01  -7.000000030000e-02  0.0
 -1.071429029000e-01  -1.700000018000e-01  0.0
 -9.857146590000e-02  -1.700000018000e-01  0.0
 -9.000002890000e-02  -1.700000018000e-01  0.0
 -8.142859190000e-02  -1.700000018000e-01  0.0
 -7.285715490000e-02  -1.700000018000e-01  0.0
 -6.428571790000e-02  -1.700000018000e-01  0.0
 -1.037143230360e-01  -1.630000025200e-01  0.0
 -9.514288603600e-02  -1.630000025200e-01  0.0
 -8.657144903600e-02  -1.630000025200e-01  0.0
 -7.800001203600e-02  -1.630000025200e-01  0.0
 -6.942857503600e-02  -1.630000025200e-01  0.0
 -1.002857431720e-01  -1.560000032400e-01  0.0
 -9.171430617200e-02  -1.560000032400e-01  0.0
 -8.314286917200e-02  -1.560000032400e-01  0.0
 -7.457143217200e-02  -1.560000032400e-01  0.0
 -9.685716330800e-02  -1.490000039600e-01  0.0
 -8.828572630800e-02  -1.490000039600e-01  0.0
 -7.971428930800e-02  -1.490000039600e-01  0.0
 -9.342858344400e-02  -1.420000046800e-01  0.0
 -8.485714644400e-02  -1.420000046800e-01  0.0
 -9.000000358000e-02  -1.350000054000e-01  0.0
 -1.312499940000e-01  -2.000000030000e-01  0.0
 -1.264285757800e-01  -1.940000027600e-01  0.0
 -1.216071575600e-01  -1.880000025200e-01  0.0
 -1.167857393400e-01  -1.820000022800e-01  0.0
 -1.119643211200e-01  -1.760000020400e-01  0.0
 -1.071429029000e-01  -1.700000018000e-01  0.0
 -1.349999964000e-01  -1.940000027600e-01  0.0
 -1.301785781800e-01  -1.880000025200e-01  0.0
 -1.253571599600e-01  -1.820000022800e-01  0.0
 -1.205357417400e-01  -1.760000020400e-01  0.0
 -1.157143235200e-01  -1.700000018000e-01  0.0
 -1.387499988000e-01  -1.880000025200e-01  0.0
 -1.339285805800e-01  -1.820000022800e-01  0.0
 -1.291071623600e-01  -1.760000020400e-01  0.0
 -1.242857441400e-01  -1.700000018000e-01  0.0
 -1.425000012000e-01  -1.820000022800e-01  0.0
 -1.376785829800e-01  -1.760000020400e-01  0.0
 -1.328571647600e-01  -1.700000018000e-01  0.0
 -1.462500036000e-01  -1.760000020400e-01  0.0
 -1.414285853800e-01  -1.700000018000e-01  0.0
 -1.500000060000e-01  -1.700000018000e-01  0.0
[...]
POINT_DATA 7854
SCALARS field1 double 1
LOOKUP_TABLE default
  3.916701528292e-06 
  9.147465122085e-03 
  9.923221722909e-03 
  9.865786264620e-03 
  1.079723824575e-02 
  1.260733801667e-02 
 -4.111253136666e-06 
  7.632317184219e-03 
  8.141886667219e-03 
  8.558850739356e-03 
  1.032844545917e-02 
  6.053411137917e-07 
  5.768889823718e-03 
  6.392869861069e-03 
  7.941862337851e-03 
  1.422778869543e-05 
  3.814905328894e-03 
  5.424618378224e-03 
 -1.981866782488e-06 
  2.766034738261e-03 
  4.337983574534e-06 
  2.393552252779e-02 
  2.338965168252e-02 
  2.247309200576e-02 
  2.021443713826e-02 
  1.416416963950e-02 
 -1.290486727914e-06 
  2.379257237823e-02 
  2.288724702182e-02 
  2.062541543508e-02 
  1.447497476984e-02 
 -4.377316558933e-07 
  2.327541460100e-02 
  2.100696105901e-02 
  1.476907831623e-02 
 -4.922470678521e-07 
  2.136364723843e-02 
  1.504394819198e-02 
 -4.923833976415e-07 
  1.529826799572e-02 
 -3.531236707110e-07 
 -6.177293410297e-07 
  1.260048173761e-02 
  1.460448282932e-02 
  1.662271908006e-02 
  1.826709305454e-02 
  1.957986012331e-02 
  2.065560941485e-02 
  1.473923806754e-02 
  1.647557172668e-02 
  1.815605200469e-02 
  1.951072729590e-02 
  2.061081927057e-02 
  1.675757166493e-02 
  1.826077888766e-02 
  1.960670446351e-02 
  2.070685341214e-02 
  1.864697905726e-02 
  1.992685368956e-02 
  2.098831473435e-02 
  2.041187398659e-02 
  2.149228549037e-02 
  2.204819185239e-02 
  2.065689932948e-02 
  1.957990874966e-02 
  1.826802516220e-02 
  1.662186427551e-02 
  1.460584637518e-02 
  1.260116094652e-02 
  1.975730894263e-02 
  1.850054351843e-02 
  1.693519746675e-02 
  1.493481578844e-02 
  1.252529729753e-02 
  1.888933270238e-02 
  1.743237853592e-02 
  1.558881849482e-02 
  1.325395155809e-02 
  1.805340141375e-02 
  1.639149228124e-02 
  1.428903274188e-02 
  1.727676252030e-02 
  1.543654352606e-02 
  1.659965084286e-02 
  2.408916335002e-02 
  2.409374355266e-02 
  2.396897163082e-02 
  2.363272903846e-02 
  2.302970259167e-02 
  2.204981950619e-02 
  2.352449882666e-02 
  2.335657278340e-02 
  2.298477389462e-02 
  2.237014240987e-02 
  2.149161664092e-02 
  2.293250188808e-02 
  2.253896908440e-02 
  2.189209995488e-02 
  2.098872165643e-02 
  2.227900236641e-02 
  2.162856027755e-02 
  2.070584676731e-02 
  2.152620539174e-02 
  2.061035855924e-02 
  2.065605509185e-02 
  2.450109973758e-02 
  2.077289627840e-02 
  2.138827173752e-02 
  2.058871682958e-02 
  2.303370878405e-02 
  7.863804986102e-04 
  2.168207326531e-02 
  2.187340537228e-02 
  2.125714466573e-02 
  2.093184452554e-02 
  2.095322941841e-02 
  2.170463892061e-02 
  2.178275748396e-02 
  2.107335399179e-02 
  2.124970364767e-02 
  2.156011565769e-02 
  2.148903884931e-02 
  2.096680153371e-02 
  2.195778312002e-02 
  2.065724330003e-02 
  2.281165216016e-02 
  1.659861699945e-02 
  1.771591278896e-02 
  1.872603643065e-02 
  1.962315659467e-02 
  2.043117818349e-02 
  2.116687215662e-02 
  1.727673703375e-02 
  1.837288656150e-02 
  1.934105528208e-02 
  2.020416235561e-02 
  2.096296334383e-02 
  1.805411773237e-02 
  1.909510910105e-02 
  2.000823477749e-02 
  2.081039705159e-02 
  1.889031181091e-02 
  1.985830831054e-02 
  2.069726012200e-02 
  1.975839725158e-02 
  2.064342057646e-02 
  2.065735169779e-02 
  2.202348547332e-02 
  2.154339386791e-02 
  2.174822247113e-02 
  2.187486890832e-02 
  2.179340717470e-02 
  2.311626764658e-02 
  2.171138912718e-02 
  2.163421150557e-02 
  2.179462828067e-02 
  2.181265775353e-02 
  2.193470897602e-02 
  2.169364003658e-02 
  2.174348429769e-02 
  2.179967589622e-02 
  2.179819132185e-02 
  2.177186345451e-02 
  2.179397089782e-02 
  2.175173248991e-02 
  2.174112574480e-02 
  2.188350009290e-02 
  2.143607437701e-02 
  2.100289117194e-02 
  2.167774209272e-02 
  2.230431715652e-02 
  2.289054777636e-02 
  2.343613210588e-02 
  2.393917933271e-02 
  2.144512996687e-02 
  2.207986055916e-02 
  2.267708356632e-02 
  2.324146163350e-02 
  2.377078091443e-02 
  2.187473211505e-02 
  2.247527556098e-02 
  2.304818418980e-02 
  2.359762191565e-02 
  2.230086280213e-02 
  2.287287029357e-02 
  2.343004712304e-02 
  2.271665669692e-02 
  2.326992764679e-02 
  2.312427464085e-02 
 -3.771462661715e-06 
  1.209870580770e-02 
  1.739166903056e-02 
  1.947270265067e-02 
  2.039853523666e-02 
  2.100378707092e-02 
  1.146056997612e-02 
  1.656360617047e-02 
  1.864439762915e-02 
  1.961446050534e-02 
  2.027987402646e-02 
  1.562965444260e-02 
  1.771839577479e-02 
  1.875362948566e-02 
  1.948945572025e-02 
  1.667175783443e-02 
  1.779621707899e-02 
  1.862264793584e-02 
  1.672165192280e-02 
  1.766522688628e-02 
  1.659542912323e-02 
  2.116444388931e-02 
  2.154765822692e-02 
  2.193608646463e-02 
  2.232714592982e-02 
  2.272259020177e-02 
  2.312373284149e-02 
  2.156252480757e-02 
  2.190575096297e-02 
  2.225880321499e-02 
  2.262255618470e-02 
  2.299765026391e-02 
  2.193263656209e-02 
  2.223398799781e-02 
  2.255344202138e-02 
  2.289241444716e-02 
  2.226427260554e-02 
  2.252508186005e-02 
  2.281252550475e-02 
  2.254664458701e-02 
  2.276945811861e-02 
  2.276771400203e-02 
  2.312365459231e-02 
  2.272265684878e-02 
  2.232719458047e-02 
  2.193600048085e-02 
  2.154774875533e-02 
  2.116446747776e-02 
  2.271664161176e-02 
  2.230190637662e-02 
  2.188243464255e-02 
  2.145842994998e-02 
  2.102400017626e-02 
  2.230047326867e-02 
  2.186209811423e-02 
  2.141161943292e-02 
  2.094763577256e-02 
  2.187460563418e-02 
  2.140821116932e-02 
  2.092188709515e-02 
  2.144494690429e-02 
  2.094371957656e-02 
  2.100358769543e-02 
  2.446568067705e-02 
  2.398958474303e-02 
  2.360410729120e-02 
  2.328442236347e-02 
  2.301231495437e-02 
  2.276778468197e-02 
  2.433400242269e-02 
  2.386476247838e-02 
  2.345773795438e-02 
  2.309681351762e-02 
  2.276937313476e-02 
  2.411168283746e-02 
  2.364139447829e-02 
  2.321259301103e-02 
  2.281263257246e-02 
  2.382260021365e-02 
  2.334652169477e-02 
  2.289250114624e-02 
  2.348812142722e-02 
  2.299762577869e-02 
  2.312437381678e-02 
  2.116536371497e-02 
  2.156267727942e-02 
  2.193266961787e-02 
  2.226447602861e-02 
  2.254674015899e-02 
  2.276739035673e-02 
  2.096351602762e-02 
  2.140989065653e-02 
  2.181182458727e-02 
  2.216899819603e-02 
  2.247370647095e-02 
  2.080997058283e-02 
  2.129697346094e-02 
  2.174050833363e-02 
  2.212965345907e-02 
  2.069742620949e-02 
  2.123784537312e-02 
  2.172856641764e-02 
  2.064335757616e-02 
  2.124450264128e-02 
  2.065785507019e-02 
  2.446534327772e-02 
  2.433404188203e-02 
  2.411162960045e-02 
  2.382260698625e-02 
  2.348793015889e-02 
  2.312526416169e-02 
  2.484593618472e-02 
  2.463223187517e-02 
  2.435096623805e-02 
  2.402700713429e-02 
  2.367421839704e-02 
  2.521435350449e-02 
  2.491913481825e-02 
  2.458465736816e-02 
  2.422980380540e-02 
  2.555392937714e-02 
  2.518553489134e-02 
  2.480540770277e-02 
  2.585614007782e-02 
  2.542455157322e-02 
  2.610929521270e-02 
  2.100388233301e-02 
  2.094379251165e-02 
  2.092208642099e-02 
  2.094779549147e-02 
  2.102353106331e-02 
  2.116572067295e-02 
  2.028010029333e-02 
  2.023181253088e-02 
  2.023429733695e-02 
  2.030072698116e-02 
  2.043158936865e-02 
  1.948945166500e-02 
  1.946367643436e-02 
  1.950471889114e-02 
  1.962346340157e-02 
  1.862298944596e-02 
  1.863041084219e-02 
  1.872573991809e-02 
  1.766504162647e-02 
  1.771608692054e-02 
  1.659721166357e-02 
 -4.634712946642e-07 
 -5.159807318456e-07 
 -4.373790163150e-07 
 -5.765490919462e-07 
 -4.952670902625e-07 
 -1.476617538686e-06 
  1.668059842577e-02 
  1.664863851113e-02 
  1.654455218931e-02 
  1.637879027298e-02 
  1.617235294328e-02 
  2.330624903577e-02 
  2.324836632271e-02 
  2.308305754253e-02 
  2.283305394497e-02 
  2.541647194749e-02 
  2.532044105576e-02 
  2.511686225669e-02 
  2.599282726962e-02 
  2.585403973804e-02 
  2.615589071251e-02 
  2.408676065265e-02 
  2.352458838848e-02 
  2.293244116059e-02 
  2.227877788777e-02 
  2.152535717237e-02 
  2.065745256822e-02 
  2.353048982207e-02 
  2.306743568263e-02 
  2.254452367645e-02 
  2.194066350805e-02 
  2.124463114238e-02 
  2.314673068568e-02 
  2.275170740727e-02 
  2.227774910515e-02 
  2.172855872902e-02 
  2.290367430550e-02 
  2.255385647376e-02 
  2.212949499247e-02 
  2.277992216220e-02 
  2.247381000562e-02 
  2.276689823902e-02 
  2.835385650803e-02 
  2.760439231415e-02 
  2.652688413315e-02 
  2.555668197315e-02 
  2.474158526572e-02 
  2.408751310513e-02 
  2.850701894291e-02 
  2.733138906360e-02 
  2.623539452862e-02 
  2.532429412930e-02 
  2.455240631561e-02 
  2.801105065383e-02 
  2.680966988135e-02 
  2.576811034745e-02 
  2.487628924609e-02 
  2.728196669769e-02 
  2.612505774382e-02 
  2.509753568404e-02 
  2.640941134214e-02 
  2.528118264299e-02 
  2.548183382087e-02 
  2.834985880411e-02 
  2.734239206076e-02 
  2.620782546865e-02 
  2.494750828973e-02 
  2.356114967106e-02 
  2.204897676992e-02 
  2.760519957027e-02 
  2.664101835041e-02 
  2.555129041603e-02 
  2.435077308809e-02 
  2.302990523456e-02 
  2.652538072577e-02 
  2.565523423315e-02 
  2.469351861648e-02 
  2.363267548269e-02 
  2.555839667930e-02 
  2.480799392846e-02 
  2.396915646117e-02 
  2.474058083314e-02 
  2.409275594198e-02 
  2.409205374994e-02 
  2.835062494367e-02 
  2.850784331889e-02 
  2.801036122479e-02 
  2.728234534862e-02 
  2.640820395418e-02 
  2.548629356636e-02 
  2.923143565373e-02 
  2.922799565363e-02 
  2.852499858198e-02 
  2.764128118713e-02 
  2.664460487824e-02 
  2.998725650678e-02 
  2.982349795261e-02 
  2.894855031512e-02 
  2.792562118214e-02 
  3.061785280735e-02 
  3.031431384727e-02 
  2.928830671789e-02 
  3.112296486867e-02 
  3.067585513223e-02 
  3.150013406125e-02 
  2.547729937413e-02 
  2.528049079078e-02 
  2.509652394841e-02 
  2.487548418197e-02 
  2.455082636793e-02 
  2.408536550222e-02 
  2.446872073302e-02 
  2.439359208406e-02 
  2.430710096699e-02 
  2.417840180220e-02 
  2.395514054708e-02 
  2.353090626732e-02 
  2.357615510028e-02 
  2.360580213443e-02 
  2.359041840955e-02 
  2.263730228770e-02 
  2.282388725838e-02 
  2.299510891983e-02 
  2.178712333815e-02 
  2.215491811958e-02 
  2.097367333591e-02 
  2.031844011567e-02 
  2.152974922814e-02 
  2.262940444782e-02 
  2.365121313814e-02 
  2.459098804523e-02 
  2.547561397697e-02 
  2.025353786629e-02 
  2.149389991760e-02 
  2.259734295793e-02 
  2.358323751898e-02 
  2.446889186078e-02 
  2.028902686466e-02 
  2.153253684270e-02 
  2.260160882814e-02 
  2.353055359678e-02 
  2.043222439570e-02 
  2.163446457118e-02 
  2.263765003797e-02 
  2.066962808644e-02 
  2.178686916678e-02 
  2.097554013153e-02 
  2.547953627928e-02 
  2.558725336597e-02 
  2.564777982433e-02 
  2.567160976363e-02 
  2.568650353139e-02 
  2.571009259348e-02 
  2.664591178905e-02 
  2.682121669368e-02 
  2.690904213849e-02 
  2.694937829156e-02 
  2.692754989051e-02 
  2.792336307368e-02 
  2.811752299784e-02 
  2.823624663274e-02 
  2.827751244459e-02 
  2.929063669804e-02 
  2.953214426863e-02 
  2.966021739304e-02 
  3.067470062767e-02 
  3.094337416471e-02 
  3.150588852547e-02 
  2.408411446905e-02 
  2.365973026397e-02 
  2.328600484139e-02 
  2.297413278770e-02 
  2.273834943707e-02 
  2.262526521925e-02 
  2.395529059316e-02 
  2.343095194758e-02 
  2.296284534007e-02 
  2.255495771491e-02 
  2.222888749714e-02 
  2.359013583302e-02 
  2.296785752493e-02 
  2.238414307844e-02 
  2.184612556203e-02 
  2.299549037917e-02 
  2.224457830324e-02 
  2.149483017351e-02 
  2.215467677426e-02 
  2.120086602209e-02 
  2.097563832438e-02 
  2.292350914141e-02 
  2.202682317545e-02 
  2.181335166514e-02 
  2.180228370092e-02 
  2.203498328032e-02 
  2.293075057715e-02 
  2.167149173970e-02 
  2.189638222434e-02 
  2.188913400490e-02 
  2.197842724694e-02 
  2.198763613000e-02 
  2.172027304543e-02 
  2.154148801363e-02 
  2.152073442272e-02 
  2.113581336038e-02 
  2.170232248460e-02 
  2.172220738551e-02 
  2.157544122361e-02 
  1.978959482765e-02 
  2.182080806919e-02 
  4.035422080494e-04 
  1.993199880684e-02 
  2.081586347127e-02 
  2.146937110212e-02 
  2.196640065325e-02 
  2.234178956669e-02 
  2.262783615402e-02 
  2.086925674768e-02 
  2.153517580553e-02 
  2.202834372112e-02 
  2.239928816635e-02 
  2.266955449016e-02 
  2.186933951282e-02 
  2.230577459326e-02 
  2.262533282796e-02 
  2.286005578438e-02 
  2.289973733064e-02 
  2.310217719720e-02 
  2.324173396964e-02 
  2.392593033125e-02 
  2.389839129180e-02 
  2.491400910202e-02 
  2.262483176734e-02 
  2.273841448288e-02 
  2.297403041523e-02 
  2.328606726652e-02 
  2.365959272335e-02 
  2.408465696628e-02 
  2.292820219733e-02 
  2.294811842837e-02 
  2.307867651416e-02 
  2.327945548565e-02 
  2.353070901614e-02 
  2.307598925817e-02 
  2.301721104608e-02 
  2.305187185090e-02 
  2.314620907897e-02 
  2.308891257741e-02 
  2.295846232546e-02 
  2.290352358544e-02 
  2.298527723601e-02 
  2.277967114428e-02 
  2.276745386513e-02 
  9.086134828926e-03 
  1.091103276059e-02 
  1.245210626672e-02 
  1.376892436315e-02 
  1.491008458706e-02 
  1.592273255548e-02 
  9.881469586507e-03 
  1.160140012849e-02 
  1.304941601583e-02 
  1.428440758698e-02 
  1.534670647833e-02 
  1.087909243635e-02 
  1.249772801353e-02 
  1.381831996266e-02 
  1.493835955529e-02 
  1.210656034532e-02 
  1.357741783172e-02 
  1.474032721909e-02 
  1.355469648956e-02 
  1.481902241153e-02 
  1.517060570980e-02 
  1.592162570177e-02 
  1.729480049253e-02 
  1.844621768378e-02 
  1.941641240948e-02 
  2.025228045846e-02 
  2.097885848878e-02 
  1.645357399741e-02 
  1.772228038318e-02 
  1.877513274772e-02 
  1.966635595035e-02 
  2.043312331644e-02 
  1.716140841703e-02 
  1.827040706876e-02 
  1.919748947641e-02 
  1.998844950501e-02 
  1.800622274567e-02 
  1.892213439543e-02 
  1.969876820398e-02 
  1.894296501011e-02 
  1.965032162054e-02 
  1.993299997051e-02 
  1.993075742129e-02 
  1.936543275246e-02 
  1.866203779631e-02 
  1.780491675144e-02 
  1.669629755459e-02 
  1.517093095196e-02 
  1.894224310524e-02 
  1.819420970348e-02 
  1.729966098477e-02 
  1.620439777038e-02 
  1.481906054742e-02 
  1.800606537494e-02 
  1.710526283490e-02 
  1.603331365280e-02 
  1.474020723216e-02 
  1.716104553414e-02 
  1.614252793672e-02 
  1.493822156230e-02 
  1.645299015425e-02 
  1.534680459988e-02 
  1.592263692679e-02 
  1.592178972625e-02 
  1.650560736530e-02 
  1.735669008361e-02 
  1.832684444646e-02 
  1.933805447526e-02 
  2.032099842118e-02 
  1.729497562068e-02 
  1.780463321432e-02 
  1.852581370910e-02 
  1.936588106350e-02 
  2.025345610172e-02 
  1.844645688877e-02 
  1.890084693220e-02 
  1.954103374457e-02 
  2.028902629387e-02 
  1.941619786075e-02 
  1.984578319893e-02 
  2.043243028724e-02 
  2.025253062093e-02 
  2.066991544627e-02 
  2.097730787557e-02 
  2.446519904602e-02 
  2.465975027105e-02 
  2.481661058560e-02 
  2.492753796119e-02 
  2.497408783645e-02 
  2.491456081992e-02 
  2.412230824772e-02 
  2.420295770768e-02 
  2.420995746866e-02 
  2.411904792083e-02 
  2.389830375923e-02 
  2.375012260098e-02 
  2.370348616334e-02 
  2.354637050127e-02 
  2.324188279496e-02 
  2.336482980416e-02 
  2.318475515346e-02 
  2.285992685047e-02 
  2.298212288410e-02 
  2.266963136323e-02 
  2.262738523176e-02 
  1.993403729443e-02 
  1.965010132166e-02 
  1.969902729065e-02 
  1.998828553672e-02 
  2.043329434742e-02 
  2.097807565321e-02 
  2.081567382742e-02 
  2.056144828830e-02 
  2.059069869222e-02 
  2.082231229754e-02 
  2.120141755218e-02 
  2.146966756499e-02 
  2.126641059659e-02 
  2.129195402650e-02 
  2.149534220019e-02 
  2.196629802279e-02 
  2.181021826139e-02 
  2.184654923454e-02 
  2.234198954691e-02 
  2.222921931047e-02 
  2.262653266260e-02 
  2.446588918256e-02 
  2.412207381415e-02 
  2.374998046130e-02 
  2.336454613390e-02 
  2.298185325733e-02 
  2.262575360044e-02 
  2.398956157881e-02 
  2.372607152351e-02 
  2.345216910535e-02 
  2.318084211032e-02 
  2.292804280236e-02 
  2.360419628998e-02 
  2.341931422519e-02 
  2.324045750607e-02 
  2.307624837217e-02 
  2.328436242311e-02 
  2.317825408177e-02 
  2.308899319720e-02 
  2.301245104333e-02 
  2.298549729202e-02 
  2.276737646106e-02 
  1.592197946862e-02 
  1.491035533570e-02 
  1.376886435082e-02 
  1.245182485189e-02 
  1.091113775399e-02 
  9.086505854482e-03 
  1.524227588118e-02 
  1.414275879219e-02 
  1.288393541199e-02 
  1.143111376987e-02 
  9.750871873944e-03 
  1.473224024996e-02 
  1.356739208791e-02 
  1.223916654637e-02 
  1.071421249789e-02 
  1.440780132086e-02 
  1.321971003810e-02 
  1.187671211060e-02 
  1.428239600380e-02 
  1.311583281146e-02 
  1.434863986914e-02 
  2.610969678569e-02 
  2.542442127097e-02 
  2.480554042454e-02 
  2.422965879338e-02 
  2.367424092091e-02 
  2.312499499879e-02 
  2.558015589666e-02 
  2.496711073657e-02 
  2.438868544770e-02 
  2.382726985551e-02 
  2.327017700747e-02 
  2.508950723000e-02 
  2.452632844477e-02 
  2.397671984629e-02 
  2.343017636539e-02 
  2.464895301929e-02 
  2.412518664785e-02 
  2.359780054222e-02 
  2.427024458486e-02 
  2.377111711453e-02 
  2.394016465114e-02 
  2.435322567777e-02 
  2.163272853593e-02 
  2.165638722710e-02 
  2.154832397225e-02 
  2.188102130616e-02 
  2.293875843864e-02 
  2.174508564325e-02 
  2.139420335707e-02 
  2.146944401972e-02 
  2.145193838854e-02 
  2.195512676849e-02 
  2.141164814805e-02 
  2.152004775175e-02 
  2.149662342898e-02 
  2.174053214751e-02 
  2.143314963472e-02 
  2.135769920147e-02 
  2.169921753933e-02 
  2.165420837597e-02 
  2.214354409721e-02 
  2.205984177627e-02 
  2.730225324786e-02 
  2.686527211614e-02 
  2.649704292335e-02 
  2.619919124380e-02 
  2.596764697353e-02 
  2.578209591072e-02 
  2.751145935699e-02 
  2.703858703821e-02 
  2.664660193941e-02 
  2.633578834472e-02 
  2.609404384898e-02 
  2.766979011617e-02 
  2.716767821726e-02 
  2.675977917585e-02 
  2.643822204369e-02 
  2.777161588231e-02 
  2.725083262084e-02 
  2.683430252363e-02 
  2.781790335261e-02 
  2.728900232165e-02 
  2.780645980675e-02 
  2.730178646768e-02 
  2.716137018998e-02 
  2.696928598855e-02 
  2.672661615849e-02 
  2.643701556875e-02 
  2.610873917866e-02 
  2.646260220543e-02 
  2.629357662544e-02 
  2.608813234830e-02 
  2.584918991653e-02 
  2.558022973142e-02 
  2.573818756097e-02 
  2.554554975612e-02 
  2.532839016325e-02 
  2.508930065773e-02 
  2.509760283417e-02 
  2.488315558111e-02 
  2.464902420613e-02 
  2.450872315788e-02 
  2.427001831068e-02 
  2.394085437436e-02 
  2.446468192579e-02 
  2.501761320358e-02 
  2.571326694442e-02 
  2.661674195249e-02 
  2.780338198804e-02 
  2.937360425654e-02 
  2.465964946820e-02 
  2.527022149816e-02 
  2.607559664624e-02 
  2.716166560494e-02 
  2.862860739284e-02 
  2.481637147589e-02 
  2.550743786970e-02 
  2.646168824069e-02 
  2.779503318778e-02 
  2.492741784317e-02 
  2.572510747239e-02 
  2.688334193199e-02 
  2.497412377163e-02 
  2.591434141510e-02 
  2.491375787264e-02 
  2.937361784956e-02 
  2.780346162531e-02 
  2.661678698634e-02 
  2.571333356469e-02 
  2.501766783808e-02 
  2.446470782671e-02 
  2.853076597841e-02 
  2.727178466547e-02 
  2.627922914302e-02 
  2.548954288319e-02 
  2.484564031878e-02 
  2.780957240983e-02 
  2.677225753200e-02 
  2.592169420713e-02 
  2.521396447603e-02 
  2.717771954081e-02 
  2.630117719189e-02 
  2.555344981591e-02 
  2.661681732381e-02 
  2.585556836337e-02 
  2.610827687278e-02 
  3.230884987035e-02 
  3.195494448938e-02 
  3.147838532260e-02 
  3.088181772010e-02 
  3.017268252524e-02 
  2.937535965947e-02 
  3.050329713157e-02 
  3.012968902383e-02 
  2.966687844462e-02 
  2.912787109753e-02 
  2.853061775645e-02 
  2.905105730355e-02 
  2.868857084771e-02 
  2.827131118874e-02 
  2.780986138363e-02 
  2.787878630230e-02 
  2.754508006323e-02 
  2.717751415598e-02 
  2.692065344877e-02 
  2.661682781916e-02 
  2.610721089935e-02 
  3.121760597623e-02 
  2.996072395968e-02 
  2.840060134608e-02 