# vtk DataFile Version 2
NuDG++ 2D simulation
ASCII
DATASET UNSTRUCTURED_GRID

POINTS 7854 double
 -1.656250060000e-01  -2.000000030000e-01  0.0
 -1.725000054000e-01  -1.908888817000e-01  0.0
 -1.793750048000e-01  -1.817777604000e-01  0.0
 -1.862500042000e-01  -1.726666391000e-01  0.0
 -1.931250036000e-01  -1.635555178000e-01  0.0
 -2.000000030000e-01  -1.544443965000e-01  0.0
 -1.725000054000e-01  -2.000000030000e-01  0.0
 -1.793750048000e-01  -1.908888817000e-01  0.0
 -1.862500042000e-01  -1.817777604000e-01  0.0
 -1.931250036000e-01  -1.726666391000e-01  0.0
 -2.000000030000e-01  -1.635555178000e-01  0.0
 -1.793750048000e-01  -2.000000030000e-01  0.0
 -1.862500042000e-01  -1.908888817000e-01  0.0
 -1.931250036000e-01  -1.817777604000e-01  0.0
 -2.000000030000e-01  -1.726666391000e-01  0.0
 -1.862500042000e-01  -2.000000030000e-01  0.0
 -1.931250036000e-01  -1.908888817000e-01  0.0
 -2.000000030000e-01  -1.817777604000e-01  0.0
 -1.931250036000e-01  -2.000000030000e-01  0.0
 -2.000000030000e-01  -1.908888817000e-01  0.0
 -2.000000030000e-01  -2.000000030000e-01  0.0
 -6.428571790000e-02  -1.700000018000e-01  0.0
 -7.080357372400e-02  -1.760000020400e-01  0.0
 -7.732142954800e-02  -1.820000022800e-01  0.0
 -8.383928537200e-02  -1.880000025200e-01  0.0
 -9.035714119600e-02  -1.940000027600e-01  0.0
 -9.687499702000e-02  -2.000000030000e-01  0.0
 -6.392857432000e-02  -1.760000020400e-01  0.0
 -7.044643014400e-02  -1.820000022800e-01  0.0
 -7.696428596800e-02  -1.880000025200e-01  0.0
 -8.348214179200e-02  -1.940000027600e-01  0.0
 -8.999999761600e-02  -2.000000030000e-01  0.0
 -6.357143074000e-02  -1.820000022800e-01  0.0
 -7.008928656400e-02  -1.880000025200e-01  0.0
 -7.660714238800e-02  -1.940000027600e-01  0.0
 -8.312499821200e-02  -2.000000030000e-01  0.0
 -6.321428716000e-02  -1.880000025200e-01  0.0
 -6.973214298400e-02  -1.940000027600e-01  0.0
 -7.624999880800e-02  -2.000000030000e-01  0.0
 -6.285714358000e-02  -1.940000027600e-01  0.0
 -6.937499940400e-02  -2.000000030000e-01  0.0
 -6.250000000000e-02  -2.000000030000e-01  0.0
 -2.000000030000e-01  -1.544443965000e-01  0.0
 -1.900000036000e-01  -1.478412374800e-01  0.0
 -1.800000042000e-01  -1.412380784600e-01  0.0
 -1.700000048000e-01  -1.346349194400e-01  0.0
 -1.600000054000e-01  -1.280317604200e-01  0.0
 -1.500000060000e-01  -1.214286014000e-01  0.0
 -2.000000030000e-01  -1.453332975600e-01  0.0
 -1.900000036000e-01  -1.387301385400e-01  0.0
 -1.800000042000e-01  -1.321269795200e-01  0.0
 -1.700000048000e-01  -1.255238205000e-01  0.0
 -1.600000054000e-01  -1.189206614800e-01  0.0
 -2.000000030000e-01  -1.362221986200e-01  0.0
 -1.900000036000e-01  -1.296190396000e-01  0.0
 -1.800000042000e-01  -1.230158805800e-01  0.0
 -1.700000048000e-01  -1.164127215600e-01  0.0
 -2.000000030000e-01  -1.271110996800e-01  0.0
 -1.900000036000e-01  -1.205079406600e-01  0.0
 -1.800000042000e-01  -1.139047816400e-01  0.0
 -2.000000030000e-01  -1.180000007400e-01  0.0
 -1.900000036000e-01  -1.113968417200e-01  0.0
 -2.000000030000e-01  -1.088889018000e-01  0.0
 -1.500000060000e-01  -1.214286014000e-01  0.0
 -1.600000054000e-01  -1.280317604200e-01  0.0
 -1.700000048000e-01  -1.346349194400e-01  0.0
 -1.800000042000e-01  -1.412380784600e-01  0.0
 -1.900000036000e-01  -1.478412374800e-01  0.0
 -2.000000030000e-01  -1.544443965000e-01  0.0
 -1.500000060000e-01  -1.311428814800e-01  0.0
 -1.600000054000e-01  -1.377460405000e-01  0.0
 -1.700000048000e-01  -1.443491995200e-01  0.0
 -1.800000042000e-01  -1.509523585400e-01  0.0
 -1.900000036000e-01  -1.575555175600e-01  0.0
 -1.500000060000e-01  -1.408571615600e-01  0.0
 -1.600000054000e-01  -1.474603205800e-01  0.0
 -1.700000048000e-01  -1.540634796000e-01  0.0
 -1.800000042000e-01  -1.606666386200e-01  0.0
 -1.500000060000e-01  -1.505714416400e-01  0.0
 -1.600000054000e-01  -1.571746006600e-01  0.0
 -1.700000048000e-01  -1.637777596800e-01  0.0
 -1.500000060000e-01  -1.602857217200e-01  0.0
 -1.600000054000e-01  -1.668888807400e-01  0.0
 -1.500000060000e-01  -1.700000018000e-01  0.0
 -1.500000060000e-01  -7.285714149000e-02  0.0
 -1.600000054000e-01  -8.006349355200e-02  0.0
 -1.700000048000e-01  -8.726984561400e-02  0.0
 -1.800000042000e-01  -9.447619767600e-02  0.0
 -1.900000036000e-01  -1.016825497380e-01  0.0
 -2.000000030000e-01  -1.088889018000e-01  0.0
 -1.500000060000e-01  -8.257143347200e-02  0.0
 -1.600000054000e-01  -8.977778553400e-02  0.0
 -1.700000048000e-01  -9.698413759600e-02  0.0
 -1.800000042000e-01  -1.041904896580e-01  0.0
 -1.900000036000e-01  -1.113968417200e-01  0.0
 -1.500000060000e-01  -9.228572545400e-02  0.0
 -1.600000054000e-01  -9.949207751600e-02  0.0
 -1.700000048000e-01  -1.066984295780e-01  0.0
 -1.800000042000e-01  -1.139047816400e-01  0.0
 -1.500000060000e-01  -1.020000174360e-01  0.0
 -1.600000054000e-01  -1.092063694980e-01  0.0
 -1.700000048000e-01  -1.164127215600e-01  0.0
 -1.500000060000e-01  -1.117143094180e-01  0.0
 -1.600000054000e-01  -1.189206614800e-01  0.0
 -1.500000060000e-01  -1.214286014000e-01  0.0
  1.832975030000e+00  -4.625000060000e-02  0.0
  1.841380024000e+00  -7.700000108000e-02  0.0
  1.849785018000e+00  -1.077500015600e-01  0.0
  1.858190012000e+00  -1.385000020400e-01  0.0
  1.866595006000e+00  -1.692500025200e-01  0.0
  1.875000000000e+00  -2.000000030000e-01  0.0
  1.866380024000e+00  -5.649999976400e-02  0.0
  1.874785018000e+00  -8.725000024400e-02  0.0
  1.883190012000e+00  -1.180000007240e-01  0.0
  1.891595006000e+00  -1.487500012040e-01  0.0
  1.900000000000e+00  -1.795000016840e-01  0.0
  1.899785018000e+00  -6.674999892800e-02  0.0
  1.908190012000e+00  -9.749999940800e-02  0.0
  1.916595006000e+00  -1.282499998880e-01  0.0
  1.925000000000e+00  -1.590000003680e-01  0.0
  1.933190012000e+00  -7.699999809200e-02  0.0
  1.941595006000e+00  -1.077499985720e-01  0.0
  1.950000000000e+00  -1.384999990520e-01  0.0
  1.966595006000e+00  -8.724999725600e-02  0.0
  1.975000000000e+00  -1.179999977360e-01  0.0
  2.000000000000e+00  -9.749999642000e-02  0.0
 -1.500000060000e-01  -1.700000018000e-01  0.0
 -1.444000050800e-01  -1.630000025200e-01  0.0
 -1.388000041600e-01  -1.560000032400e-01  0.0
 -1.332000032400e-01  -1.490000039600e-01  0.0
 -1.276000023200e-01  -1.420000046800e-01  0.0
 -1.220000014000e-01  -1.350000054000e-01  0.0
 -1.500000060000e-01  -1.602857217200e-01  0.0
 -1.444000050800e-01  -1.532857224400e-01  0.0
 -1.388000041600e-01  -1.462857231600e-01  0.0
 -1.332000032400e-01  -1.392857238800e-01  0.0
 -1.276000023200e-01  -1.322857246000e-01  0.0
 -1.500000060000e-01  -1.505714416400e-01  0.0
 -1.444000050800e-01  -1.435714423600e-01  0.0
 -1.388000041600e-01  -1.365714430800e-01  0.0
 -1.332000032400e-01  -1.295714438000e-01  0.0
 -1.500000060000e-01  -1.408571615600e-01  0.0
 -1.444000050800e-01  -1.338571622800e-01  0.0
 -1.388000041600e-01  -1.268571630000e-01  0.0
 -1.500000060000e-01  -1.311428814800e-01  0.0
 -1.444000050800e-01  -1.241428822000e-01  0.0
 -1.500000060000e-01  -1.214286014000e-01  0.0
  2.849999964000e-01  -2.333333530000e-02  0.0
  2.844999968800e-01  -4.666666836000e-02  0.0
  2.839999973600e-01  -7.000000142000e-02  0.0
  2.834999978400e-01  -9.333333448000e-02  0.0
  2.829999983200e-01  -1.166666675400e-01  0.0
  2.824999988000e-01  -1.400000006000e-01  0.0
  2.979999959200e-01  -3.266666830000e-02  0.0
  2.974999964000e-01  -5.600000136000e-02  0.0
  2.969999968800e-01  -7.933333442000e-02  0.0
  2.964999973600e-01  -1.026666674800e-01  0.0
  2.959999978400e-01  -1.260000005400e-01  0.0
  3.109999954400e-01  -4.200000130000e-02  0.0
  3.104999959200e-01  -6.533333436000e-02  0.0
  3.099999964000e-01  -8.866666742000e-02  0.0
  3.094999968800e-01  -1.120000004800e-01  0.0
  3.239999949600e-01  -5.133333430000e-02  0.0
  3.234999954400e-01  -7.466666736000e-02  0.0
  3.229999959200e-01  -9.800000042000e-02  0.0
  3.369999944800e-01  -6.066666730000e-02  0.0
  3.364999949600e-01  -8.400000036000e-02  0.0
  3.499999940000e-01  -7.000000030000e-02  0.0
 -1.071429029000e-01  -1.700000018000e-01  0.0
 -9.857146590000e-02  -1.700000018000e-01  0.0
 -9.000002890000e-02  -1.700000018000e-01  0.0
 -8.142859190000e-02  -1.700000018000e-01  0.0
 -7.285715490000e-02  -1.700000018000e-01  0.0
 -6.428571790000e-02  -1.700000018000e-01  0.0
 -1.037143230360e-01  -1.630000025200e-01  0.0
 -9.514288603600e-02  -1.630000025200e-01  0.0
 -8.657144903600e-02  -1.630000025200e-01  0.0
 -7.800001203600e-02  -1.630000025200e-01  0.0
 -6.942857503600e-02  -1.630000025200e-01  0.0
 -1.002857431720e-01  -1.560000032400e-01  0.0
 -9.171430617200e-02  -1.560000032400e-01  0.0
 -8.314286917200e-02  -1.560000032400e-01  0.0
 -7.457143217200e-02  -1.560000032400e-01  0.0
 -9.685716330800e-02  -1.490000039600e-01  0.0
 -8.828572630800e-02  -1.490000039600e-01  0.0
 -7.971428930800e-02  -1.490000039600e-01  0.0
 -9.342858344400e-02  -1.420000046800e-01  0.0
 -8.485714644400e-02  -1.420000046800e-01  0.0
 -9.000000358000e-02  -1.350000054000e-01  0.0
 -1.312499940000e-01  -2.000000030000e-01  0.0
 -1.264285757800e-01  -1.940000027600e-01  0.0
 -1.216071575600e-01  -1.880000025200e-01  0.0
 -1.167857393400e-01  -1.820000022800e-01  0.0
 -1.119643211200e-01  -1.760000020400e-01  0.0
 -1.071429029000e-01  -1.700000018000e-01  0.0
 -1.349999964000e-01  -1.940000027600e-01  0.0
 -1.301785781800e-01  -1.880000025200e-01  0.0
 -1.253571599600e-01  -1.820000022800e-01  0.0
 -1.205357417400e-01  -1.760000020400e-01  0.0
 -1.157143235200e-01  -1.700000018000e-01  0.0
 -1.387499988000e-01  -1.880000025200e-01  0.0
 -1.339285805800e-01  -1.820000022800e-01  0.0
 -1.291071623600e-01  -1.760000020400e-01  0.0
 -1.242857441400e-01  -1.700000018000e-01  0.0
 -1.425000012000e-01  -1.820000022800e-01  0.0
 -1.376785829800e-01  -1.760000020400e-01  0.0
 -1.328571647600e-01  -1.700000018000e-01  0.0
 -1.462500036000e-01  -1.760000020400e-01  0.0
 -1.414285853800e-01  -1.700000018000e-01  0.0
 -1.500000060000e-01  -1.700000018000e-01  0.0
[...]
POINT_DATA 7854
SCALARS field1 double 1
LOOKUP_TABLE default
 -1.362748440754e-06 
  1.213753763868e-02 
  1.403353193483e-02 
  1.431567054594e-02 
  1.577785016877e-02 
  1.853011125064e-02 
 -3.859719334870e-06 
  1.004898625445e-02 
  1.150382712267e-02 
  1.249937116172e-02 
  1.518799508938e-02 
  1.648571539014e-06 
  7.611674850273e-03 
  9.166766713838e-03 
  1.167461918425e-02 
  1.030525129302e-05 
  5.252313185759e-03 
  7.971936886996e-03 
 -2.672761497295e-06 
  4.072038102270e-03 
  3.166442757750e-06 
  3.558500993933e-02 
  3.449491065350e-02 
  3.248574769846e-02 
  2.809887001037e-02 
  1.860992513357e-02 
 -8.641930351111e-07 
  3.510340045082e-02 
  3.310283936391e-02 
  2.868374555481e-02 
  1.902924070959e-02 
 -2.883242729456e-07 
  3.367989345674e-02 
  2.922914385585e-02 
  1.942539538201e-02 
 -3.338456015342e-07 
  2.973847978406e-02 
  1.979593925171e-02 
 -3.238068976460e-07 
  2.013953209745e-02 
 -2.047487649213e-07 
 -4.510580402307e-07 
  1.852847819673e-02 
  2.139613305911e-02 
  2.438157111310e-02 
  2.688526748998e-02 
  2.888019044321e-02 
  3.050019012038e-02 
  2.167627782012e-02 
  2.418746895396e-02 
  2.666953845394e-02 
  2.873474915863e-02 
  3.038406969270e-02 
  2.464156324664e-02 
  2.683234999284e-02 
  2.885378717866e-02 
  3.050810749430e-02 
  2.741967643309e-02 
  2.931585557258e-02 
  3.091907730401e-02 
  3.001319512217e-02 
  3.163581526866e-02 
  3.242229923642e-02 
  3.050016522488e-02 
  2.888016770761e-02 
  2.688488458827e-02 
  2.438154241136e-02 
  2.139642092202e-02 
  1.853000730921e-02 
  2.919388079612e-02 
  2.725898129783e-02 
  2.486629761371e-02 
  2.185618947462e-02 
  1.831062467056e-02 
  2.788269121239e-02 
  2.564786945862e-02 
  2.284761318137e-02 
  1.931477306685e-02 
  2.662228234121e-02 
  2.409834246941e-02 
  2.090012366343e-02 
  2.546716608968e-02 
  2.266713763198e-02 
  2.440673063256e-02 
  3.557881948264e-02 
  3.561706774474e-02 
  3.540162594961e-02 
  3.486053152205e-02 
  3.390801319244e-02 
  3.242362778413e-02 
  3.479502787717e-02 
  3.450449104818e-02 
  3.391666067618e-02 
  3.297370613735e-02 
  3.163523812831e-02 
  3.389372529740e-02 
  3.326600498762e-02 
  3.228516810325e-02 
  3.091867354893e-02 
  3.287984266387e-02 
  3.189458940680e-02 
  3.050785062829e-02 
  3.174481424879e-02 
  3.038415077992e-02 
  3.049955388682e-02 
  3.622550613128e-02 
  3.059624955508e-02 
  3.134680661921e-02 
  3.092190679975e-02 
  3.395121254016e-02 
  6.201339651296e-04 
  3.215253505860e-02 
  3.239944820879e-02 
  3.152817145445e-02 
  3.138841548519e-02 
  3.041253650970e-02 
  3.209242068159e-02 
  3.232671540241e-02 
  3.129588609764e-02 
  3.179639518150e-02 
  3.193391749667e-02 
  3.185169767162e-02 
  3.097441043599e-02 
  3.244083362301e-02 
  3.070007425986e-02 
  3.325486539244e-02 
  2.440663109001e-02 
  2.614675199964e-02 
  2.767332351266e-02 
  2.903013243920e-02 
  3.024596479836e-02 
  3.132621522378e-02 
  2.546642111357e-02 
  2.712114690418e-02 
  2.858612782702e-02 
  2.988096207615e-02 
  3.101822354975e-02 
  2.662250547338e-02 
  2.819968997368e-02 
  2.957476345503e-02 
  3.076967711051e-02 
  2.788295563903e-02 
  2.933959565471e-02 
  3.059225296114e-02 
  2.919334601684e-02 
  3.049572227042e-02 
  3.050026929092e-02 
  3.259384754575e-02 
  3.184398503027e-02 
  3.219371886997e-02 
  3.231410996497e-02 
  3.227867764097e-02 
  3.376830753059e-02 
  3.207802729696e-02 
  3.202620877809e-02 
  3.224379598056e-02 
  3.224604374654e-02 
  3.240289038603e-02 
  3.208029036076e-02 
  3.219037496553e-02 
  3.225085557236e-02 
  3.222995194720e-02 
  3.228572274061e-02 
  3.225501076269e-02 
  3.221942441554e-02 
  3.226312987270e-02 
  3.235252412622e-02 
  3.184972871735e-02 
  3.110206880561e-02 
  3.213198746298e-02 
  3.308627254705e-02 
  3.398021036660e-02 
  3.481345120117e-02 
  3.558799157689e-02 
  3.183811416658e-02 
  3.280833873501e-02 
  3.372361778048e-02 
  3.458618444208e-02 
  3.539623430266e-02 
  3.249251657866e-02 
  3.341255477102e-02 
  3.429174732176e-02 
  3.513291276484e-02 
  3.313149372575e-02 
  3.400922395301e-02 
  3.486468249315e-02 
  3.375422932234e-02 
  3.460372472046e-02 
  3.436371456452e-02 
 -1.292825301622e-06 
  1.584548533253e-02 
  2.409774159238e-02 
  2.805403280902e-02 
  2.998057493624e-02 
  3.110226179434e-02 
  1.499403007992e-02 
  2.292859851678e-02 
  2.683044341546e-02 
  2.879847427045e-02 
  3.000663707958e-02 
  2.161197041684e-02 
  2.546803442525e-02 
  2.750220182231e-02 
  2.880592336785e-02 
  2.393303235502e-02 
  2.606108418939e-02 
  2.748967674145e-02 
  2.444174249052e-02 
  2.603346960727e-02 
  2.440534987356e-02 
  3.132711029999e-02 
  3.192870099725e-02 
  3.252915868842e-02 
  3.313440762672e-02 
  3.374351621178e-02 
  3.436319703655e-02 
  3.192918006456e-02 
  3.246084389022e-02 
  3.300650015494e-02 
  3.356887143344e-02 
  3.414855945150e-02 
  3.247925427226e-02 
  3.294753452911e-02 
  3.344190645968e-02 
  3.396618011474e-02 
  3.296936139471e-02 
  3.337620207065e-02 
  3.382311594653e-02 
  3.338604841325e-02 
  3.373339937633e-02 
  3.370769694989e-02 
  3.436300503358e-02 
  3.374364191330e-02 
  3.313439954029e-02 
  3.252917477598e-02 
  3.192874656788e-02 
  3.132727624513e-02 
  3.375450230090e-02 
  3.311599228155e-02 
  3.247100796247e-02 
  3.181841697650e-02 
  3.115377062398e-02 
  3.313125501019e-02 
  3.245767596757e-02 
  3.176685795464e-02 
  3.105636221329e-02 
  3.249262792125e-02 
  3.177718641400e-02 
  3.103322436648e-02 
  3.183814537476e-02 
  3.107314544982e-02 
  3.110271307515e-02 
  3.633795312013e-02 
  3.560300592000e-02 
  3.500433558369e-02 
  3.450674588587e-02 
  3.408408036749e-02 
  3.370782504589e-02 
  3.615312762104e-02 
  3.542636208056e-02 
  3.479669623948e-02 
  3.423884880572e-02 
  3.373332385365e-02 
  3.582593791064e-02 
  3.510045573393e-02 
  3.443878436949e-02 
  3.382312841818e-02 
  3.539809693024e-02 
  3.466455672275e-02 
  3.396619471359e-02 
  3.490131032070e-02 
  3.414848457385e-02 
  3.436368301850e-02 
  3.132689326029e-02 
  3.192924889107e-02 
  3.247921699865e-02 
  3.296938869146e-02 
  3.338621898319e-02 
  3.370734408780e-02 
  3.101818439941e-02 
  3.167980836506e-02 
  3.228079817333e-02 
  3.281229445375e-02 
  3.326123189618e-02 
  3.076969794526e-02 
  3.149672050275e-02 
  3.215602901345e-02 
  3.273624152702e-02 
  3.059186987032e-02 
  3.139189984053e-02 
  3.211641391176e-02 
  3.049570931460e-02 
  3.137757073814e-02 
  3.049987404379e-02 
  3.633757341259e-02 
  3.615311914075e-02 
  3.582588718209e-02 
  3.539812762514e-02 
  3.490115463226e-02 
  3.436454282743e-02 
  3.693891364793e-02 
  3.662407482934e-02 
  3.620717286934e-02 
  3.572477975119e-02 
  3.519976514938e-02 
  3.751818333598e-02 
  3.707786881454e-02 
  3.657840730067e-02 
  3.604816984278e-02 
  3.805219183831e-02 
  3.749944316052e-02 
  3.692941218709e-02 
  3.852807002245e-02 
  3.787836235650e-02 
  3.893045936979e-02 
  3.110266166398e-02 
  3.107343829445e-02 
  3.103346369558e-02 
  3.105644105033e-02 
  3.115359157315e-02 
  3.132704500397e-02 
  3.000688789029e-02 
  2.998706843653e-02 
  2.998447039014e-02 
  3.006797695820e-02 
  3.024596182338e-02 
  2.880605127855e-02 
  2.881629331820e-02 
  2.886809336282e-02 
  2.903030296142e-02 
  2.748994160116e-02 
  2.754279179762e-02 
  2.767282731571e-02 
  2.603352045626e-02 
  2.614665418942e-02 
  2.440609124395e-02 
 -2.407704632148e-07 
 -3.279949436401e-07 
 -2.546125633067e-07 
 -3.822071285315e-07 
 -3.113608349987e-07 
 -1.123032728752e-06 
  2.199087516205e-02 
  2.194017773091e-02 
  2.178545591020e-02 
  2.154635248878e-02 
  2.125120732279e-02 
  3.250027072433e-02 
  3.240253695915e-02 
  3.214719070736e-02 
  3.177266041283e-02 
  3.684636842460e-02 
  3.669031201811e-02 
  3.636713404934e-02 
  3.842680140052e-02 
  3.820483467733e-02 
  3.896577325068e-02 
  3.557721862170e-02 
  3.479409599443e-02 
  3.389346434012e-02 
  3.288011614069e-02 
  3.174483850004e-02 
  3.049977001197e-02 
  3.477833107597e-02 
  3.409778503777e-02 
  3.330756518671e-02 
  3.239954742963e-02 
  3.137753802845e-02 
  3.420945988487e-02 
  3.362703910182e-02 
  3.292607682180e-02 
  3.211647964456e-02 
  3.384998258140e-02 
  3.335194951081e-02 
  3.273633226691e-02 
  3.369204308378e-02 
  3.326126123075e-02 
  3.370696629604e-02 
  4.168730303358e-02 
  4.071370639461e-02 
  3.919548899777e-02 
  3.775707657973e-02 
  3.654868310069e-02 
  3.557903380569e-02 
  4.204254930010e-02 
  4.039384647411e-02 
  3.878146186151e-02 
  3.739921792340e-02 
  3.622199431117e-02 
  4.141121019416e-02 
  3.963875206079e-02 
  3.807527674051e-02 
  3.671868332527e-02 
  4.034848065578e-02 
  3.861877812004e-02 
  3.708522208498e-02 
  3.905276521011e-02 
  3.736529637396e-02 
  3.760279867681e-02 
  4.168577090160e-02 
  4.020339869951e-02 
  3.853596050994e-02 
  3.668422371166e-02 
  3.464638645565e-02 
  3.242248122838e-02 
  4.071414465926e-02 
  3.927646606025e-02 
  3.765823043875e-02 
  3.587143126078e-02 
  3.390779035623e-02 
  3.919541872441e-02 
  3.790186838536e-02 
  3.645348109741e-02 
  3.485997013189e-02 
  3.775723528681e-02 
  3.664919301124e-02 
  3.540249761104e-02 
  3.654792044689e-02 
  3.561673813034e-02 
  3.558122183443e-02 
  4.168609872187e-02 
  4.204234336685e-02 
  4.141047909146e-02 
  4.034882568161e-02 
  3.905242079866e-02 
  3.760480529451e-02 
  4.298326289879e-02 
  4.311117574993e-02 
  4.219192245184e-02 
  4.087861330615e-02 
  3.937930360163e-02 
  4.409440412368e-02 
  4.400409902687e-02 
  4.283191518477e-02 
  4.129265963488e-02 
  4.502023132817e-02 
  4.472945670210e-02 
  4.332877387345e-02 
  4.576208830934e-02 
  4.527560796513e-02 
  4.631662003278e-02 
  3.760093220364e-02 
  3.736437857899e-02 
  3.708455012853e-02 
  3.671883687300e-02 
  3.622212599815e-02 
  3.557642617412e-02 
  3.609719666689e-02 
  3.600981990513e-02 
  3.588781972364e-02 
  3.568968508151e-02 
  3.536593119169e-02 
  3.468224834670e-02 
  3.477049348303e-02 
  3.483199248721e-02 
  3.482003670521e-02 
  3.333016290275e-02 
  3.363822728202e-02 
  3.392386787156e-02 
  3.204259274234e-02 
  3.262855826362e-02 
  3.082825370420e-02 
  2.979834457318e-02 
  3.162492785640e-02 
  3.330176961939e-02 
  3.484568279839e-02 
  3.626933432111e-02 
  3.760011191213e-02 
  2.967660522835e-02 
  3.157235542687e-02 
  3.325069630908e-02 
  3.475057142093e-02 
  3.609721363451e-02 
  2.973478139902e-02 
  3.163303241377e-02 
  3.326361232430e-02 
  3.468201408298e-02 
  2.996135717987e-02 
  3.179536435949e-02 
  3.333045509930e-02 
  3.033560484962e-02 
  3.204251745265e-02 
  3.082914835077e-02 
  3.760270159643e-02 
  3.774687834495e-02 
  3.785173573058e-02 
  3.790699405707e-02 
  3.793239119721e-02 
  3.794551975504e-02 
  3.937980874410e-02 
  3.962807845775e-02 
  3.977040664534e-02 
  3.983104594970e-02 
  3.981085030251e-02 
  4.129233602052e-02 
  4.159747169825e-02 
  4.177467167860e-02 
  4.182978237339e-02 
  4.332939652849e-02 
  4.368899159238e-02 
  4.388301011106e-02 
  4.527526690605e-02 
  4.566584588368e-02 
  4.631805219402e-02 
  3.557494036827e-02 
  3.494735113370e-02 
  3.439467501601e-02 
  3.393427982766e-02 
  3.358778344001e-02 
  3.342705017596e-02 
  3.536625031394e-02 
  3.459526318706e-02 
  3.389936536216e-02 
  3.328762399397e-02 
  3.280126308764e-02 
  3.481973440857e-02 
  3.389148270901e-02 
  3.301165083458e-02 
  3.219424253175e-02 
  3.392388856209e-02 
  3.278413312565e-02 
  3.163876091830e-02 
  3.262844797836e-02 
  3.117480268093e-02 
  3.082931123266e-02 
  3.379229633589e-02 
  3.249260879283e-02 
  3.211904721452e-02 
  3.215833230402e-02 
  3.266048594626e-02 
  3.370257120304e-02 
  3.213527898048e-02 
  3.231539856194e-02 
  3.233314227619e-02 
  3.258083382900e-02 
  3.295252272768e-02 
  3.211946764087e-02 
  3.191084507276e-02 
  3.179685102174e-02 
  3.132280849276e-02 
  3.201040636390e-02 
  3.223936657413e-02 
  3.182013293488e-02 
  2.785048680204e-02 
  3.141294654715e-02 
  2.983720153796e-04 
  2.925876709042e-02 
  3.063065708115e-02 
  3.164214010837e-02 
  3.241042656042e-02 
  3.299008542134e-02 
  3.343034287415e-02 
  3.070360170368e-02 
  3.174796058216e-02 
  3.251302062867e-02 
  3.308681004968e-02 
  3.350525243014e-02 
  3.224886306201e-02 
  3.294398628399e-02 
  3.344220089070e-02 
  3.380629355994e-02 
  3.384451653161e-02 
  3.418006279632e-02 
  3.440126680583e-02 
  3.543565449087e-02 
  3.541555826487e-02 
  3.696989276557e-02 
  3.342672966573e-02 
  3.358782647107e-02 
  3.393419427698e-02 
  3.439482202609e-02 
  3.494729480097e-02 
  3.557540116045e-02 
  3.390296523262e-02 
  3.391934829489e-02 
  3.410139818912e-02 
  3.439728228532e-02 
  3.477835066751e-02 
  3.414150330650e-02 
  3.403159179374e-02 
  3.406973530265e-02 
  3.420892913521e-02 
  3.417055590979e-02 
  3.395007462960e-02 
  3.385022189794e-02 
  3.402148243205e-02 
  3.369186739012e-02 
  3.370761236235e-02 
  1.261112449764e-02 
  1.535854646906e-02 
  1.771651241279e-02 
  1.974372122228e-02 
  2.150304842952e-02 
  2.305651884581e-02 
  1.374028649393e-02 
  1.637130304785e-02 
  1.861170900514e-02 
  2.052686968739e-02 
  2.217337719194e-02 
  1.516940010529e-02 
  1.768818072769e-02 
  1.976508948792e-02 
  2.152162828423e-02 
  1.693412156002e-02 
  1.928046372942e-02 
  2.115120714323e-02 
  1.902641642946e-02 
  2.111983317399e-02 
  2.138217743856e-02 
  2.305451722790e-02 
  2.517249172428e-02 
  2.694053103315e-02 
  2.843048356692e-02 
  2.971147701439e-02 
  3.083138661745e-02 
  2.388184499237e-02 
  2.583658802199e-02 
  2.745478605538e-02 
  2.882317078142e-02 
  2.999731667565e-02 
  2.497409920253e-02 
  2.668656788819e-02 
  2.811194958728e-02 
  2.932589212396e-02 
  2.627740243330e-02 
  2.769610133625e-02 
  2.889038392002e-02 
  2.772567361007e-02 
  2.882378812052e-02 
  2.926005874915e-02 
  2.925726059543e-02 
  2.835834559711e-02 
  2.722361693222e-02 
  2.580209917385e-02 
  2.393142488243e-02 
  2.138271173974e-02 
  2.772493615335e-02 
  2.655159232935e-02 
  2.512889999184e-02 
  2.336414995923e-02 
  2.111986285274e-02 
  2.627730826402e-02 
  2.487415378766e-02 
  2.319210704923e-02 
  2.115107634488e-02 
  2.497377860870e-02 
  2.339439168681e-02 
  2.152142778862e-02 
  2.388121319138e-02 
  2.217351893977e-02 
  2.305627539855e-02 
  2.305407584096e-02 
  2.395123669022e-02 
  2.524929121095e-02 
  2.673319442609e-02 
  2.827632862545e-02 
  2.979899746862e-02 
  2.517271774522e-02 
  2.594425469439e-02 
  2.704295795411e-02 
  2.832258217190e-02 
  2.967649683878e-02 
  2.694067761953e-02 
  2.762669153934e-02 
  2.859747452696e-02 
  2.973455801790e-02 
  2.843026398559e-02 
  2.907418003917e-02 
  2.996136926035e-02 
  2.971166445863e-02 
  3.033585104825e-02 
  3.083002270892e-02 
  3.633766979820e-02 
  3.663059969669e-02 
  3.686404239328e-02 
  3.702633687244e-02 
  3.708758220514e-02 
  3.697057931496e-02 
  3.579591483464e-02 
  3.591135353583e-02 
  3.591385716617e-02 
  3.576652321471e-02 
  3.541544699134e-02 
  3.520666526048e-02 
  3.512661384996e-02 
  3.487719511548e-02 
  3.440145437880e-02 
  3.459624981005e-02 
  3.431252136066e-02 
  3.380614044347e-02 
  3.399166653259e-02 
  3.350533830706e-02 
  3.342981428910e-02 
  2.926119901277e-02 
  2.882351074063e-02 
  2.889065732189e-02 
  2.932576373634e-02 
  2.999745656479e-02 
  3.083082323022e-02 
  3.063034719924e-02 
  3.023003745623e-02 
  3.026302999186e-02 
  3.060659033280e-02 
  3.117541427980e-02 
  3.164247529127e-02 
  3.131630266508e-02 
  3.134218651750e-02 
  3.163941060129e-02 
  3.241030776063e-02 
  3.215491919539e-02 
  3.219490731314e-02 
  3.299029975819e-02 
  3.280161687329e-02 
  3.342869732159e-02 
  3.633833339907e-02 
  3.579565743786e-02 
  3.520644361485e-02 
  3.459580539900e-02 
  3.399134338966e-02 
  3.342783868445e-02 
  3.560296978617e-02 
  3.518059382154e-02 
  3.474278392297e-02 
  3.430902584044e-02 
  3.390283048033e-02 
  3.500445900113e-02 
  3.470305667450e-02 
  3.441050973219e-02 
  3.414168351602e-02 
  3.450665594839e-02 
  3.432579944647e-02 
  3.417057224477e-02 
  3.408420617026e-02 
  3.402184633337e-02 
  3.370741465249e-02 
  2.305524435335e-02 
  2.150343326547e-02 
  1.974357770088e-02 
  1.771620765157e-02 
  1.535860797263e-02 
  1.261184560806e-02 
  2.201160861412e-02 
  2.032327850809e-02 
  1.839212643778e-02 
  1.617557522292e-02 
  1.363692156721e-02 
  2.122505372690e-02 
  1.943999390062e-02 
  1.740991909440e-02 
  1.509705412116e-02 
  2.072426630734e-02 
  1.890636574126e-02 
  1.685799662806e-02 
  2.053006793373e-02 
  1.874588442457e-02 
  2.063433234868e-02 
  3.893110857648e-02 
  3.787830189727e-02 
  3.692961935500e-02 
  3.604803901221e-02 
  3.519988051071e-02 
  3.436412885239e-02 
  3.813460311646e-02 
  3.719522182730e-02 
  3.630957557373e-02 
  3.545242210186e-02 
  3.460404616608e-02 
  3.739581174260e-02 
  3.653456437913e-02 
  3.569598013290e-02 
  3.486468872704e-02 
  3.673427948775e-02 
  3.593601498883e-02 
  3.513322928467e-02 
  3.616798244936e-02 
  3.539636664490e-02 
  3.559026974134e-02 
  3.614361037321e-02 
  3.207702039344e-02 
  3.205169879899e-02 
  3.192044616364e-02 
  3.237317746335e-02 
  3.339990518101e-02 
  3.246689320118e-02 
  3.188274067844e-02 
  3.199311324983e-02 
  3.199121489767e-02 
  3.264242841290e-02 
  3.186228017735e-02 
  3.210302340938e-02 
  3.201806058728e-02 
  3.242766597004e-02 
  3.183518894311e-02 
  3.183064688558e-02 
  3.296195416256e-02 
  3.236699614299e-02 
  3.329379411549e-02 
  3.318901550026e-02 
  4.080042626597e-02 
  4.013796580454e-02 
  3.958190326756e-02 
  3.912968777951e-02 
  3.877470622688e-02 
  3.840618409920e-02 
  4.112499681933e-02 
  4.040855762164e-02 
  3.981392301185e-02 
  3.934060417371e-02 
  3.896724965186e-02 
  4.137201711655e-02 
  4.060953090828e-02 
  3.998900975618e-02 
  3.949952331872e-02 
  4.153182695291e-02 
  4.073914867734e-02 
  4.010457907593e-02 
  4.160475402918e-02 
  4.079782069769e-02 
  4.158961269809e-02 
  4.079991566641e-02 
  4.057796550957e-02 
  4.027644575003e-02 
  3.989639901041e-02 
  3.944316406989e-02 
  3.893014616385e-02 
  3.951546243916e-02 
  3.925091049332e-02 
  3.892937105597e-02 
  3.855580010825e-02 
  3.813465360551e-02 
  3.841122799519e-02 
  3.810923591114e-02 
  3.776954868014e-02 
  3.739561800664e-02 
  3.743478246682e-02 
  3.709991487287e-02 
  3.673434436985e-02 
  3.653310349449e-02 
  3.616773065665e-02 
  3.559113823729e-02 
  3.633714306142e-02 
  3.719013958895e-02 
  3.826372221218e-02 
  3.965669776261e-02 
  4.148443998530e-02 
  4.388402392573e-02 
  3.663043719645e-02 
  3.757161047634e-02 
  3.881361294682e-02 
  4.048619501042e-02 
  4.272721288756e-02 
  3.686373379234e-02 
  3.792896195821e-02 
  3.939851909468e-02 
  4.143025507297e-02 
  3.702616969143e-02 
  3.825435970783e-02 
  4.001377169761e-02 
  3.708764160729e-02 
  3.851290610788e-02 
  3.696948216155e-02 
  4.388414366706e-02 
  4.148451432666e-02 
  3.965677040418e-02 
  3.826378906963e-02 
  3.719020661144e-02 
  3.633709595145e-02 
  4.261958399600e-02 
  4.067873394750e-02 
  3.914756876678e-02 
  3.792996134270e-02 
  3.693855994328e-02 
  4.151919621459e-02 
  3.991919243419e-02 
  3.860798236129e-02 
  3.751776533980e-02 
  4.055550664396e-02 
  3.920387612024e-02 
  3.805164940080e-02 
  3.970041348249e-02 
  3.852741474897e-02 
  3.892924309967e-02 
  4.845335125320e-02 
  4.790028456237e-02 
  4.715452592689e-02 
  4.622313366904e-02 
  4.512139477474e-02 
  4.388620434068e-02 
  4.569078385236e-02 
  4.510716594145e-02 
  4.438648958807e-02 
  4.354849483889e-02 
  4.261939105944e-02 
  4.345370739584e-02 
  4.288800425159e-02 
  4.223797634554e-02 
  4.151951267487e-02 
  4.164871084196e-02 
  4.112804670348e-02 
  4.055525957924e-02 
  4.017388579041e-02 
  3.970040435481e-02 
  3.892805980573e-02 
  4.449083910634e-02 
  4.355387061744e-02 
  4.180206718272e-02 