# vtk DataFile Version 2
NuDG++ 2D simulation
ASCII
DATASET UNSTRUCTURED_GRID

POINTS 7854 double
 -1.656250060000e-01  -2.000000030000e-01  0.0
 -1.725000054000e-01  -1.908888817000e-01  0.0
 -1.793750048000e-01  -1.817777604000e-01  0.0
 -1.862500042000e-01  -1.726666391000e-01  0.0
 -1.931250036000e-01  -1.635555178000e-01  0.0
 -2.000000030000e-01  -1.544443965000e-01  0.0
 -1.725000054000e-01  -2.000000030000e-01  0.0
 -1.793750048000e-01  -1.908888817000e-01  0.0
 -1.862500042000e-01  -1.817777604000e-01  0.0
 -1.931250036000e-01  -1.726666391000e-01  0.0
 -2.000000030000e-01  -1.635555178000e-01  0.0
 -1.793750048000e-01  -2.000000030000e-01  0.0
 -1.862500042000e-01  -1.908888817000e-01  0.0
 -1.931250036000e-01  -1.817777604000e-01  0.0
 -2.000000030000e-01  -1.726666391000e-01  0.0
 -1.862500042000e-01  -2.000000030000e-01  0.0
 -1.931250036000e-01  -1.908888817000e-01  0.0
 -2.000000030000e-01  -1.817777604000e-01  0.0
 -1.931250036000e-01  -2.000000030000e-01  0.0
 -2.000000030000e-01  -1.908888817000e-01  0.0
 -2.000000030000e-01  -2.000000030000e-01  0.0
 -6.428571790000e-02  -1.700000018000e-01  0.0
 -7.080357372400e-02  -1.760000020400e-01  0.0
 -7.732142954800e-02  -1.820000022800e-01  0.0
 -8.383928537200e-02  -1.880000025200e-01  0.0
 -9.035714119600e-02  -1.940000027600e-01  0.0
 -9.687499702000e-02  -2.000000030000e-01  0.0
 -6.392857432000e-02  -1.760000020400e-01  0.0
 -7.044643014400e-02  -1.820000022800e-01  0.0
 -7.696428596800e-02  -1.880000025200e-01  0.0
 -8.348214179200e-02  -1.940000027600e-01  0.0
 -8.999999761600e-02  -2.000000030000e-01  0.0
 -6.357143074000e-02  -1.820000022800e-01  0.0
 -7.008928656400e-02  -1.880000025200e-01  0.0
 -7.660714238800e-02  -1.940000027600e-01  0.0
 -8.312499821200e-02  -2.000000030000e-01  0.0
 -6.321428716000e-02  -1.880000025200e-01  0.0
 -6.973214298400e-02  -1.940000027600e-01  0.0
 -7.624999880800e-02  -2.000000030000e-01  0.0
 -6.285714358000e-02  -1.940000027600e-01  0.0
 -6.937499940400e-02  -2.000000030000e-01  0.0
 -6.250000000000e-02  -2.000000030000e-01  0.0
 -2.000000030000e-01  -1.544443965000e-01  0.0
 -1.900000036000e-01  -1.478412374800e-01  0.0
 -1.800000042000e-01  -1.412380784600e-01  0.0
 -1.700000048000e-01  -1.346349194400e-01  0.0
 -1.600000054000e-01  -1.280317604200e-01  0.0
 -1.500000060000e-01  -1.214286014000e-01  0.0
 -2.000000030000e-01  -1.453332975600e-01  0.0
 -1.900000036000e-01  -1.387301385400e-01  0.0
 -1.800000042000e-01  -1.321269795200e-01  0.0
 -1.700000048000e-01  -1.255238205000e-01  0.0
 -1.600000054000e-01  -1.189206614800e-01  0.0
 -2.000000030000e-01  -1.362221986200e-01  0.0
 -1.900000036000e-01  -1.296190396000e-01  0.0
 -1.800000042000e-01  -1.230158805800e-01  0.0
 -1.700000048000e-01  -1.164127215600e-01  0.0
 -2.000000030000e-01  -1.271110996800e-01  0.0
 -1.900000036000e-01  -1.205079406600e-01  0.0
 -1.800000042000e-01  -1.139047816400e-01  0.0
 -2.000000030000e-01  -1.180000007400e-01  0.0
 -1.900000036000e-01  -1.113968417200e-01  0.0
 -2.000000030000e-01  -1.088889018000e-01  0.0
 -1.500000060000e-01  -1.214286014000e-01  0.0
 -1.600000054000e-01  -1.280317604200e-01  0.0
 -1.700000048000e-01  -1.346349194400e-01  0.0
 -1.800000042000e-01  -1.412380784600e-01  0.0
 -1.900000036000e-01  -1.478412374800e-01  0.0
 -2.000000030000e-01  -1.544443965000e-01  0.0
 -1.500000060000e-01  -1.311428814800e-01  0.0
 -1.600000054000e-01  -1.377460405000e-01  0.0
 -1.700000048000e-01  -1.443491995200e-01  0.0
 -1.800000042000e-01  -1.509523585400e-01  0.0
 -1.900000036000e-01  -1.575555175600e-01  0.0
 -1.500000060000e-01  -1.408571615600e-01  0.0
 -1.600000054000e-01  -1.474603205800e-01  0.0
 -1.700000048000e-01  -1.540634796000e-01  0.0
 -1.800000042000e-01  -1.606666386200e-01  0.0
 -1.500000060000e-01  -1.505714416400e-01  0.0
 -1.600000054000e-01  -1.571746006600e-01  0.0
 -1.700000048000e-01  -1.637777596800e-01  0.0
 -1.500000060000e-01  -1.602857217200e-01  0.0
 -1.600000054000e-01  -1.668888807400e-01  0.0
 -1.500000060000e-01  -1.700000018000e-01  0.0
 -1.500000060000e-01  -7.285714149000e-02  0.0
 -1.600000054000e-01  -8.006349355200e-02  0.0
 -1.700000048000e-01  -8.726984561400e-02  0.0
 -1.800000042000e-01  -9.447619767600e-02  0.0
 -1.900000036000e-01  -1.016825497380e-01  0.0
 -2.000000030000e-01  -1.088889018000e-01  0.0
 -1.500000060000e-01  -8.257143347200e-02  0.0
 -1.600000054000e-01  -8.977778553400e-02  0.0
 -1.700000048000e-01  -9.698413759600e-02  0.0
 -1.800000042000e-01  -1.041904896580e-01  0.0
 -1.900000036000e-01  -1.113968417200e-01  0.0
 -1.500000060000e-01  -9.228572545400e-02  0.0
 -1.600000054000e-01  -9.949207751600e-02  0.0
 -1.700000048000e-01  -1.066984295780e-01  0.0
 -1.800000042000e-01  -1.139047816400e-01  0.0
 -1.500000060000e-01  -1.020000174360e-01  0.0
 -1.600000054000e-01  -1.092063694980e-01  0.0
 -1.700000048000e-01  -1.164127215600e-01  0.0
 -1.500000060000e-01  -1.117143094180e-01  0.0
 -1.600000054000e-01  -1.189206614800e-01  0.0
 -1.500000060000e-01  -1.214286014000e-01  0.0
  1.832975030000e+00  -4.625000060000e-02  0.0
  1.841380024000e+00  -7.700000108000e-02  0.0
  1.849785018000e+00  -1.077500015600e-01  0.0
  1.858190012000e+00  -1.385000020400e-01  0.0
  1.866595006000e+00  -1.692500025200e-01  0.0
  1.875000000000e+00  -2.000000030000e-01  0.0
  1.866380024000e+00  -5.649999976400e-02  0.0
  1.874785018000e+00  -8.725000024400e-02  0.0
  1.883190012000e+00  -1.180000007240e-01  0.0
  1.891595006000e+00  -1.487500012040e-01  0.0
  1.900000000000e+00  -1.795000016840e-01  0.0
  1.899785018000e+00  -6.674999892800e-02  0.0
  1.908190012000e+00  -9.749999940800e-02  0.0
  1.916595006000e+00  -1.282499998880e-01  0.0
  1.925000000000e+00  -1.590000003680e-01  0.0
  1.933190012000e+00  -7.699999809200e-02  0.0
  1.941595006000e+00  -1.077499985720e-01  0.0
  1.950000000000e+00  -1.384999990520e-01  0.0
  1.966595006000e+00  -8.724999725600e-02  0.0
  1.975000000000e+00  -1.179999977360e-01  0.0
  2.000000000000e+00  -9.749999642000e-02  0.0
 -1.500000060000e-01  -1.700000018000e-01  0.0
 -1.444000050800e-01  -1.630000025200e-01  0.0
 -1.388000041600e-01  -1.560000032400e-01  0.0
 -1.332000032400e-01  -1.490000039600e-01  0.0
 -1.276000023200e-01  -1.420000046800e-01  0.0
 -1.220000014000e-01  -1.350000054000e-01  0.0
 -1.500000060000e-01  -1.602857217200e-01  0.0
 -1.444000050800e-01  -1.532857224400e-01  0.0
 -1.388000041600e-01  -1.462857231600e-01  0.0
 -1.332000032400e-01  -1.392857238800e-01  0.0
 -1.276000023200e-01  -1.322857246000e-01  0.0
 -1.500000060000e-01  -1.505714416400e-01  0.0
 -1.444000050800e-01  -1.435714423600e-01  0.0
 -1.388000041600e-01  -1.365714430800e-01  0.0
 -1.332000032400e-01  -1.295714438000e-01  0.0
 -1.500000060000e-01  -1.408571615600e-01  0.0
 -1.444000050800e-01  -1.338571622800e-01  0.0
 -1.388000041600e-01  -1.268571630000e-01  0.0
 -1.500000060000e-01  -1.311428814800e-01  0.0
 -1.444000050800e-01  -1.241428822000e-01  0.0
 -1.500000060000e-01  -1.214286014000e-01  0.0
  2.849999964000e-01  -2.333333530000e-02  0.0
  2.844999968800e-01  -4.666666836000e-02  0.0
  2.839999973600e-01  -7.000000142000e-02  0.0
  2.834999978400e-01  -9.333333448000e-02  0.0
  2.829999983200e-01  -1.166666675400e-01  0.0
  2.824999988000e-01  -1.400000006000e-01  0.0
  2.979999959200e-01  -3.266666830000e-02  0.0
  2.974999964000e-01  -5.600000136000e-02  0.0
  2.969999968800e-01  -7.933333442000e-02  0.0
  2.964999973600e-01  -1.026666674800e-01  0.0
  2.959999978400e-01  -1.260000005400e-01  0.0
  3.109999954400e-01  -4.200000130000e-02  0.0
  3.104999959200e-01  -6.533333436000e-02  0.0
  3.099999964000e-01  -8.866666742000e-02  0.0
  3.094999968800e-01  -1.120000004800e-01  0.0
  3.239999949600e-01  -5.133333430000e-02  0.0
  3.234999954400e-01  -7.466666736000e-02  0.0
  3.229999959200e-01  -9.800000042000e-02  0.0
  3.369999944800e-01  -6.066666730000e-02  0.0
  3.364999949600e-01  -8.400000036000e-02  0.0
  3.499999940000e-01  -7.000000030000e-02  0.0
 -1.071429029000e-01  -1.700000018000e-01  0.0
 -9.857146590000e-02  -1.700000018000e-01  0.0
 -9.000002890000e-02  -1.700000018000e-01  0.0
 -8.142859190000e-02  -1.700000018000e-01  0.0
 -7.285715490000e-02  -1.700000018000e-01  0.0
 -6.428571790000e-02  -1.700000018000e-01  0.0
 -1.037143230360e-01  -1.630000025200e-01  0.0
 -9.514288603600e-02  -1.630000025200e-01  0.0
 -8.657144903600e-02  -1.630000025200e-01  0.0
 -7.800001203600e-02  -1.630000025200e-01  0.0
 -6.942857503600e-02  -1.630000025200e-01  0.0
 -1.002857431720e-01  -1.560000032400e-01  0.0
 -9.171430617200e-02  -1.560000032400e-01  0.0
 -8.314286917200e-02  -1.560000032400e-01  0.0
 -7.457143217200e-02  -1.560000032400e-01  0.0
 -9.685716330800e-02  -1.490000039600e-01  0.0
 -8.828572630800e-02  -1.490000039600e-01  0.0
 -7.971428930800e-02  -1.490000039600e-01  0.0
 -9.342858344400e-02  -1.420000046800e-01  0.0
 -8.485714644400e-02  -1.420000046800e-01  0.0
 -9.000000358000e-02  -1.350000054000e-01  0.0
 -1.312499940000e-01  -2.000000030000e-01  0.0
 -1.264285757800e-01  -1.940000027600e-01  0.0
 -1.216071575600e-01  -1.880000025200e-01  0.0
 -1.167857393400e-01  -1.820000022800e-01  0.0
 -1.119643211200e-01  -1.760000020400e-01  0.0
 -1.071429029000e-01  -1.700000018000e-01  0.0
 -1.349999964000e-01  -1.940000027600e-01  0.0
 -1.301785781800e-01  -1.880000025200e-01  0.0
 -1.253571599600e-01  -1.820000022800e-01  0.0
 -1.205357417400e-01  -1.760000020400e-01  0.0
 -1.157143235200e-01  -1.700000018000e-01  0.0
 -1.387499988000e-01  -1.880000025200e-01  0.0
 -1.339285805800e-01  -1.820000022800e-01  0.0
 -1.291071623600e-01  -1.760000020400e-01  0.0
 -1.242857441400e-01  -1.700000018000e-01  0.0
 -1.425000012000e-01  -1.820000022800e-01  0.0
 -1.376785829800e-01  -1.760000020400e-01  0.0
 -1.328571647600e-01  -1.700000018000e-01  0.0
 -1.462500036000e-01  -1.760000020400e-01  0.0
 -1.414285853800e-01  -1.700000018000e-01  0.0
 -1.500000060000e-01  -1.700000018000e-01  0.0
[...]
POINT_DATA 7854
SCALARS field1 double 1
LOOKUP_TABLE default
 -3.792003695152e-06 
  1.441871007711e-02 
  1.735280755895e-02 
  1.809771068083e-02 
  2.011675834903e-02 
  2.371258459180e-02 
 -3.359917529595e-06 
  1.189689036754e-02 
  1.426717331735e-02 
  1.590570532288e-02 
  1.943947231837e-02 
  2.056747265443e-06 
  9.069214872237e-03 
  1.153273808275e-02 
  1.494020965059e-02 
  7.798432667181e-06 
  6.463179620057e-03 
  1.020048387331e-02 
 -2.974457296613e-06 
  5.213889624355e-03 
  2.469910440884e-06 
  4.579699224599e-02 
  4.403096339251e-02 
  4.081180342441e-02 
  3.442226924035e-02 
  2.207379896164e-02 
 -6.002406726905e-07 
  4.482348464224e-02 
  4.160423873030e-02 
  3.515205074170e-02 
  2.258113584403e-02 
 -2.157605741922e-07 
  4.234487600046e-02 
  3.583406296403e-02 
  2.305996942601e-02 
 -2.484824913596e-07 
  3.647087409166e-02 
  2.350820626992e-02 
 -2.416380351616e-07 
  2.392432949311e-02 
 -1.327157790604e-07 
 -3.608111952624e-07 
  2.371360877154e-02 
  2.731825667580e-02 
  3.112926799441e-02 
  3.439812229850e-02 
  3.701939880271e-02 
  3.913807250580e-02 
  2.774376682304e-02 
  3.091844159012e-02 
  3.409530899891e-02 
  3.679722926845e-02 
  3.895210245814e-02 
  3.153783447141e-02 
  3.432174345015e-02 
  3.693345829404e-02 
  3.909474918124e-02 
  3.509374136346e-02 
  3.752312949565e-02 
  3.961198691929e-02 
  3.841264036242e-02 
  4.050882332433e-02 
  4.149655523580e-02 
  3.913722156018e-02 
  3.701949553505e-02 
  3.439714904670e-02 
  3.112969045054e-02 
  2.731790904057e-02 
  2.371561812218e-02 
  3.746088052795e-02 
  3.491422232418e-02 
  3.176353461869e-02 
  2.785284655992e-02 
  2.333628124806e-02 
  3.575788818699e-02 
  3.281318857716e-02 
  2.913589866221e-02 
  2.454378660905e-02 
  3.411870259385e-02 
  3.079848922012e-02 
  2.659079084637e-02 
  3.261033314817e-02 
  2.889839128818e-02 
  3.113165937269e-02 
  4.570010922805e-02 
  4.576402987174e-02 
  4.545752190333e-02 
  4.471465586453e-02 
  4.343536416838e-02 
  4.149779969541e-02 
  4.471386743114e-02 
  4.431496709827e-02 
  4.352161942359e-02 
  4.226911850347e-02 
  4.050837160503e-02 
  4.353768907621e-02 
  4.269367863596e-02 
  4.140054696671e-02 
  3.961139005391e-02 
  4.220387592757e-02 
  4.090499299246e-02 
  3.909466745014e-02 
  4.072755270274e-02 
  3.895257786379e-02 
  3.913643567110e-02 
  4.671884877846e-02 
  3.867415418263e-02 
  3.984667797704e-02 
  4.020831301134e-02 
  4.347429596559e-02 
  4.952024628404e-04 
  4.140177559705e-02 
  4.152521242102e-02 
  4.054232087754e-02 
  4.071965921882e-02 
  3.839109881878e-02 
  4.126160562092e-02 
  4.158999248543e-02 
  4.032547497381e-02 
  4.113309983718e-02 
  4.115991627357e-02 
  4.093286141580e-02 
  3.975535723155e-02 
  4.165718085985e-02 
  3.955819477377e-02 
  4.284289077395e-02 
  3.113192667962e-02 
  3.350160329454e-02 
  3.552049354857e-02 
  3.729898767397e-02 
  3.888608474946e-02 
  4.028576670500e-02 
  3.260921831399e-02 
  3.478507791718e-02 
  3.670326667417e-02 
  3.839249527016e-02 
  3.987384852382e-02 
  3.411859666998e-02 
  3.618354145082e-02 
  3.798050897641e-02 
  3.953392576616e-02 
  3.575778433212e-02 
  3.766137709723e-02 
  3.929008616223e-02 
  3.745961583963e-02 
  3.914872351596e-02 
  3.913709334488e-02 
  4.199994330548e-02 
  4.087813546844e-02 
  4.139618764109e-02 
  4.151443141989e-02 
  4.152725254807e-02 
  4.310397569223e-02 
  4.119971354404e-02 
  4.119515624113e-02 
  4.145877445141e-02 
  4.142507720490e-02 
  4.160782576926e-02 
  4.125530715017e-02 
  4.140413833776e-02 
  4.146903454886e-02 
  4.139653634481e-02 
  4.160861018356e-02 
  4.147037808926e-02 
  4.143989088273e-02 
  4.158709922806e-02 
  4.156605990182e-02 
  4.110953474076e-02 
  3.990545780395e-02 
  4.125596309776e-02 
  4.250804658134e-02 
  4.368183836769e-02 
  4.477703892488e-02 
  4.579952408827e-02 
  4.099626649185e-02 
  4.227460490601e-02 
  4.348189311636e-02 
  4.461989415684e-02 
  4.568938888254e-02 
  4.188215764448e-02 
  4.309696265448e-02 
  4.425941137037e-02 
  4.537165884726e-02 
  4.271882124368e-02 
  4.387959838307e-02 
  4.501164616328e-02 
  4.352933966718e-02 
  4.465388259361e-02 
  4.432131117740e-02 
  1.593286453805e-07 
  1.874611281598e-02 
  2.944258506130e-02 
  3.514601590000e-02 
  3.815902514589e-02 
  3.990575982460e-02 
  1.772315528264e-02 
  2.799103376734e-02 
  3.358410073461e-02 
  3.662542374221e-02 
  3.847023018097e-02 
  2.635659869450e-02 
  3.184684880147e-02 
  3.494331726535e-02 
  3.689790024873e-02 
  2.988994529911e-02 
  3.307277888748e-02 
  3.517418312690e-02 
  3.096836864777e-02 
  3.326521605801e-02 
  3.113149624221e-02 
  4.028839300936e-02 
  4.108954210831e-02 
  4.188678500545e-02 
  4.269049302976e-02 
  4.349844366437e-02 
  4.432071386338e-02 
  4.106923822435e-02 
  4.177634053348e-02 
  4.250167664637e-02 
  4.324897167801e-02 
  4.401907591566e-02 
  4.178010220189e-02 
  4.240422681784e-02 
  4.306208762394e-02 
  4.375927725084e-02 
  4.241182206157e-02 
  4.295541813744e-02 
  4.355109241935e-02 
  4.294697472170e-02 
  4.341204302449e-02 
  4.335724692331e-02 
  4.432049011899e-02 
  4.349860010040e-02 
  4.269046781160e-02 
  4.188686002282e-02 
  4.108956988268e-02 
  4.028866460454e-02 
  4.352977850724e-02 
  4.268391632717e-02 
  4.182970964121e-02 
  4.096538360309e-02 
  4.008664121898e-02 
  4.271867310036e-02 
  4.182783083431e-02 
  4.091470143202e-02 
  3.997597106917e-02 
  4.188240801911e-02 
  4.093756660324e-02 
  3.995562492110e-02 
  4.099639479362e-02 
  3.998924632560e-02 
  3.990624316909e-02 
  4.685367988849e-02 
  4.587919340044e-02 
  4.508291620151e-02 
  4.442038422085e-02 
  4.385736550880e-02 
  4.335736847417e-02 
  4.662496589424e-02 
  4.565986369308e-02 
  4.482379260725e-02 
  4.408321186121e-02 
  4.341197057247e-02 
  4.620634923039e-02 
  4.524439873106e-02 
  4.436698014941e-02 
  4.355106887458e-02 
  4.565570478932e-02 
  4.468390056834e-02 
  4.375924727894e-02 
  4.501478156882e-02 
  4.401896796983e-02 
  4.432114641774e-02 
  4.028755509951e-02 
  4.106928694256e-02 
  4.178004341570e-02 
  4.241178691453e-02 
  4.294714853443e-02 
  4.335691138234e-02 
  3.987351461280e-02 
  4.072749810130e-02 
  4.150564580441e-02 
  4.219210899589e-02 
  4.276951101757e-02 
  3.953415625562e-02 
  4.047430334396e-02 
  4.132651029199e-02 
  4.207630102606e-02 
  3.928945097777e-02 
  4.032162458340e-02 
  4.125589969846e-02 
  3.914874553799e-02 
  4.028269523344e-02 
  3.913617274371e-02 
  4.685325000850e-02 
  4.662495535463e-02 
  4.620630420234e-02 
  4.565574731468e-02 
  4.501462253859e-02 
  4.432204874705e-02 
  4.766223428573e-02 
  4.725949642704e-02 
  4.672250038668e-02 
  4.609907320042e-02 
  4.542065819303e-02 
  4.844013794221e-02 
  4.787132658648e-02 
  4.722472837812e-02 
  4.653777961442e-02 
  4.915792444321e-02 
  4.844030636048e-02 
  4.769984645580e-02 
  4.979860594299e-02 
  4.895240590890e-02 
  5.034427488352e-02 
  3.990615017055e-02 
  3.998961811086e-02 
  3.995588828210e-02 
  3.997602054391e-02 
  4.008661026589e-02 
  4.028764504598e-02 
  3.847048294209e-02 
  3.855925332521e-02 
  3.857270278038e-02 
  3.867053661787e-02 
  3.888586297463e-02 
  3.689804234359e-02 
  3.701791341611e-02 
  3.709920120582e-02 
  3.729912797225e-02 
  3.517439890164e-02 
  3.534039192869e-02 
  3.551992327205e-02 
  3.326535380398e-02 
  3.350135634043e-02 
  3.113169839400e-02 
 -9.180525211801e-08 
 -2.279097927758e-07 
 -1.569023577616e-07 
 -2.739843877026e-07 
 -2.164406380434e-07 
 -8.928094824167e-07 
  2.614987182532e-02 
  2.608024669045e-02 
  2.588004425914e-02 
  2.557676107029e-02 
  2.520455953200e-02 
  3.991066706767e-02 
  3.977355818898e-02 
  3.943715777576e-02 
  3.895178018151e-02 
  4.639544615656e-02 
  4.618167945355e-02 
  4.574910106102e-02 
  4.915046754282e-02 
  4.885022678267e-02 
  5.023933403324e-02 
  4.569905005164e-02 
  4.471257991111e-02 
  4.353739291320e-02 
  4.220433963143e-02 
  4.072779397380e-02 
  3.913619644334e-02 
  4.468457554187e-02 
  4.381113854329e-02 
  4.277895706951e-02 
  4.159666122617e-02 
  4.028259922862e-02 
  4.395401941115e-02 
  4.320425326507e-02 
  4.229849169928e-02 
  4.125602174405e-02 
  4.349630176969e-02 
  4.286347876578e-02 
  4.207647039545e-02 
  4.331021004562e-02 
  4.276952118001e-02 
  4.335658008854e-02 
  5.335171366152e-02 
  5.220729228738e-02 
  5.034612931515e-02 
  4.851337787530e-02 
  4.695425149045e-02 
  4.570111284393e-02 
  5.391809789479e-02 
  5.189851393987e-02 
  4.984730512090e-02 
  4.804585293352e-02 
  4.651241262335e-02 
  5.321983764528e-02 
  5.096434214458e-02 
  4.893375276998e-02 
  4.716062324988e-02 
  5.188949224965e-02 
  4.964931724356e-02 
  4.765461310522e-02 
  5.021709949180e-02 
  4.802159935195e-02 
  4.829449407203e-02 
  5.335178853617e-02 
  5.145407063756e-02 
  4.932043512199e-02 
  4.695064408232e-02 
  4.434266173427e-02 
  4.149654384400e-02 
  5.220740313543e-02 
  5.035316187657e-02 
  4.826997606806e-02 
  4.596587712408e-02 
  4.343510078143e-02 
  5.034682507294e-02 
  4.867203539714e-02 
  4.678844315155e-02 
  4.471400486151e-02 
  4.851278942671e-02 
  4.707801672369e-02 
  4.545869071300e-02 
  4.695366012817e-02 
  4.576408985786e-02 
  4.570198764169e-02 
  5.335170730035e-02 
  5.391742582708e-02 
  5.321928093986e-02 
  5.188978147733e-02 
  5.021734857734e-02 
  4.829462559325e-02 
  5.501234412030e-02 
  5.529520543249e-02 
  5.424324014974e-02 
  5.257783073589e-02 
  5.062623704268e-02 
  5.643456571715e-02 
  5.645039589494e-02 
  5.507715242750e-02 
  5.311054689475e-02 
  5.761913206834e-02 
  5.738211859284e-02 
  5.571550502164e-02 
  5.856793193847e-02 
  5.808995444923e-02 
  5.927824919125e-02 
  4.829473129835e-02 
  4.802066322594e-02 
  4.765428243159e-02 
  4.716125923234e-02 
  4.651330325032e-02 
  4.569853510185e-02 
  4.634032206466e-02 
  4.624543453165e-02 
  4.609038133276e-02 
  4.582879176694e-02 
  4.541705949921e-02 
  4.449038513152e-02 
  4.462177851152e-02 
  4.471339248197e-02 
  4.470589476043e-02 
  4.272142350822e-02 
  4.314311836501e-02 
  4.353427396788e-02 
  4.103533994498e-02 
  4.182416328381e-02 
  3.945266647077e-02 
  3.807318997562e-02 
  4.046668036290e-02 
  4.266992322503e-02 
  4.469066413837e-02 
  4.655559245759e-02 
  4.829461008092e-02 
  3.790493861512e-02 
  4.039907195507e-02 
  4.260280891743e-02 
  4.457116265810e-02 
  4.634022054349e-02 
  3.798341170286e-02 
  4.048073780503e-02 
  4.262468840966e-02 
  4.449024834413e-02 
  3.828695458560e-02 
  4.070006992049e-02 
  4.272162952388e-02 
  3.878827330908e-02 
  4.103535437069e-02 
  3.945292899041e-02 
  4.829560299071e-02 
  4.847600176194e-02 
  4.861644722126e-02 
  4.870106194095e-02 
  4.874025830883e-02 
  4.874187159787e-02 
  5.062618697779e-02 
  5.094056663945e-02 
  5.113253338080e-02 
  5.121377746642e-02 
  5.119342599649e-02 
  5.311137387252e-02 
  5.351504499638e-02 
  5.374653198293e-02 
  5.381500503041e-02 
  5.571502227952e-02 
  5.618128449850e-02 
  5.643489359828e-02 
  5.809017555610e-02 
  5.859036180587e-02 
  5.927698873293e-02 
  4.569702225584e-02 
  4.488858999338e-02 
  4.417677486700e-02 
  4.358408940889e-02 
  4.313923259004e-02 
  4.293562061915e-02 
  4.541741894628e-02 
  4.442438472436e-02 
  4.352431276105e-02 
  4.272889676967e-02 
  4.209649436957e-02 
  4.470556099073e-02 
  4.350147154806e-02 
  4.235306991622e-02 
  4.128125375869e-02 
  4.353410193548e-02 
  4.204184369612e-02 
  4.053595674238e-02 
  4.182410320459e-02 
  3.991316876125e-02 
  3.945314864298e-02 
  4.359554429035e-02 
  4.176988890734e-02 
  4.114189442608e-02 
  4.126044678037e-02 
  4.211247979464e-02 
  4.300440652670e-02 
  4.136206343756e-02 
  4.147368172142e-02 
  4.150718479306e-02 
  4.206909621047e-02 
  4.303234460701e-02 
  4.130344710220e-02 
  4.106133332730e-02 
  4.087229503710e-02 
  4.042606051659e-02 
  4.082574920194e-02 
  4.134964210427e-02 
  4.055664531430e-02 
  3.433991417379e-02 
  3.925693038557e-02 
  2.297716203872e-04 
  3.737560318806e-02 
  3.921768011769e-02 
  4.056665411297e-02 
  4.158752786402e-02 
  4.235694152022e-02 
  4.293967855960e-02 
  3.927947985412e-02 
  4.069983873998e-02 
  4.172546492317e-02 
  4.248973522140e-02 
  4.304685592109e-02 
  4.132035313405e-02 
  4.228715920639e-02 
  4.296180449826e-02 
  4.344946410475e-02 
  4.343280224872e-02 
  4.392884270546e-02 
  4.423837525671e-02 
  4.554393296611e-02 
  4.557085989547e-02 
  4.758464053051e-02 
  4.293533850851e-02 
  4.313926822542e-02 
  4.358400328577e-02 
  4.417697758017e-02 
  4.488855708267e-02 
  4.569749180319e-02 
  4.357478888414e-02 
  4.358430586334e-02 
  4.381053217248e-02 
  4.418942399512e-02 
  4.468444423746e-02 
  4.389850214497e-02 
  4.373876908199e-02 
  4.377674660090e-02 
  4.395347726273e-02 
  4.394481665730e-02 
  4.363924862600e-02 
  4.349662896805e-02 
  4.375748998394e-02 
  4.331004783019e-02 
  4.335722017808e-02 
  1.552263201761e-02 
  1.906603589092e-02 
  2.214538365957e-02 
  2.481221467818e-02 
  2.713501432472e-02 
  2.918443266039e-02 
  1.692594506374e-02 
  2.034813373698e-02 
  2.329474782648e-02 
  2.582830612847e-02 
  2.801226597173e-02 
  1.871049063851e-02 
  2.201781984820e-02 
  2.477735060990e-02 
  2.712061232894e-02 
  2.091915331930e-02 
  2.404180367207e-02 
  2.656245335468e-02 
  2.354571041287e-02 
  2.638710374350e-02 
  2.651850299767e-02 
  2.918171733671e-02 
  3.198460318378e-02 
  3.431943973578e-02 
  3.628664673931e-02 
  3.797583206634e-02 
  3.945453397909e-02 
  3.027472660156e-02 
  3.286416672617e-02 
  3.500383446272e-02 
  3.681084541494e-02 
  3.835918308679e-02 
  3.171369674432e-02 
  3.398978802078e-02 
  3.587676353880e-02 
  3.748007081348e-02 
  3.343203401214e-02 
  3.532657158244e-02 
  3.691010968422e-02 
  3.534544032010e-02 
  3.682053901085e-02 
  3.737710640676e-02 
  3.737386765602e-02 
  3.614257347308e-02 
  3.457593198727e-02 
  3.259580909993e-02 
  2.999776158692e-02 
  2.651919471766e-02 
  3.534465235045e-02 
  3.376022292885e-02 
  3.182706944161e-02 
  2.942455190967e-02 
  2.638712929829e-02 
  3.343197359247e-02 
  3.155362041983e-02 
  2.929694704079e-02 
  2.656231394087e-02 
  3.171339918235e-02 
  2.961157536751e-02 
  2.712036241571e-02 
  3.027405070124e-02 
  2.801244250737e-02 
  2.918407127952e-02 
  2.918080018828e-02 
  3.036914382448e-02 
  3.207672472094e-02 
  3.403047456496e-02 
  3.606079376921e-02 
  3.807274132051e-02 
  3.198488782764e-02 
  3.299786366686e-02 
  3.444197695711e-02 
  3.612365314913e-02 
  3.790472704311e-02 
  3.431952160385e-02 
  3.521771702588e-02 
  3.649029841859e-02 
  3.798301657564e-02 
  3.628644242774e-02 
  3.712568224197e-02 
  3.828680244289e-02 
  3.797599237937e-02 
  3.878840262276e-02 
  3.945327032140e-02 
  4.685359668881e-02 
  4.723386200682e-02 
  4.753386708443e-02 
  4.773755939404e-02 
  4.779834944065e-02 
  4.758545697407e-02 
  4.612370417993e-02 
  4.626835549715e-02 
  4.626257570774e-02 
  4.605697994215e-02 
  4.557072592059e-02 
  4.533050454239e-02 
  4.521671380172e-02 
  4.487817073956e-02 
  4.423859839408e-02 
  4.450923614850e-02 
  4.412670225626e-02 
  4.344928230212e-02 
  4.369633496198e-02 
  4.304695562883e-02 
  4.293906459322e-02 
  3.737836188915e-02 
  3.682021921953e-02 
  3.691040756779e-02 
  3.747995409895e-02 
  3.835930926889e-02 
  3.945408429536e-02 
  3.921728806992e-02 
  3.868906735563e-02 
  3.872659241610e-02 
  3.917234750793e-02 
  3.991385482919e-02 
  4.056702198798e-02 
  4.012885043757e-02 
  4.015432194637e-02 
  4.053667700298e-02 
  4.158738146908e-02 
  4.124004015257e-02 
  4.128207067567e-02 
  4.235718494996e-02 
  4.209685997014e-02 
  4.293769603093e-02 
  4.685416915306e-02 
  4.612342407591e-02 
  4.533021936530e-02 
  4.450868472430e-02 
  4.369597323895e-02 
  4.293669875155e-02 
  4.587915396216e-02 
  4.530596440864e-02 
  4.471301703991e-02 
  4.412558104618e-02 
  4.357461951729e-02 
  4.508306095485e-02 
  4.466994764825e-02 
  4.426830486689e-02 
  4.389864730006e-02 
  4.442028691323e-02 
  4.416566639861e-02 
  4.394479209743e-02 
  4.385749656460e-02 
  4.375789254780e-02 
  4.335692585440e-02 
  2.918275163896e-02 
  2.713549168885e-02 
  2.481201126005e-02 
  2.214505290124e-02 
  1.906607495844e-02 
  1.552359959841e-02 
  2.781048438758e-02 
  2.558618450366e-02 
  2.304921437612e-02 
  2.015430392064e-02 
  1.686804753815e-02 
  2.677479735700e-02 
  2.442868681049e-02 
  2.177107289780e-02 
  1.876456588205e-02 
  2.611546724573e-02 
  2.372992764155e-02 
  2.105357106572e-02 
  2.585963866679e-02 
  2.351961148193e-02 
  2.599815411690e-02 
  5.034523871609e-02 
  4.895241631371e-02 
  4.770015401472e-02 
  4.653766485283e-02 
  4.542083979901e-02 
  4.432155286279e-02 
  4.930834087352e-02 
  4.806831806897e-02 
  4.689937571806e-02 
  4.577018641234e-02 
  4.465425963102e-02 
  4.834554730798e-02 
  4.720919981971e-02 
  4.610513742690e-02 
  4.501160713193e-02 
  4.748509816742e-02 
  4.643378514630e-02 
  4.537211608580e-02 
  4.673804446814e-02 
  4.568944055190e-02 
  4.580287080059e-02 
  4.673605381696e-02 
  4.129687281227e-02 
  4.123109475719e-02 
  4.114573558879e-02 
  4.160787185934e-02 
  4.298736464465e-02 
  4.213121156140e-02 
  4.119961253937e-02 
  4.132131044316e-02 
  4.135511661504e-02 
  4.177549987377e-02 
  4.118529315625e-02 
  4.148436202718e-02 
  4.137089115374e-02 
  4.179191686155e-02 
  4.098248238086e-02 
  4.112241802900e-02 
  4.326111318928e-02 
  4.180634491264e-02 
  4.341530966604e-02 
  4.312856542583e-02 
  5.285621745263e-02 
  5.198942962286e-02 
  5.126226516906e-02 
  5.066910274019e-02 
  5.017737761029e-02 
  4.951103849697e-02 
  5.328994062437e-02 
  5.235179394070e-02 
  5.157245673023e-02 
  5.094947135618e-02 
  5.042531522526e-02 
  5.362120291157e-02 
  5.262124764198e-02 
  5.180643178733e-02 
  5.116058507243e-02 
  5.383711009854e-02 
  5.279586552023e-02 
  5.196125884903e-02 
  5.393706482376e-02 
  5.287530814017e-02 
  5.392087249260e-02 
  5.285560225915e-02 
  5.255512582323e-02 
  5.214875849685e-02 
  5.163794626239e-02 
  5.103022938812e-02 
  5.034423736022e-02 
  5.116115187412e-02 
  5.080564741982e-02 
  5.037412337244e-02 
  4.987330262211e-02 
  4.930839022606e-02 
  4.970682121655e-02 
  4.930136665391e-02 
  4.884600505546e-02 
  4.834534627994e-02 
  4.842120994973e-02 
  4.797425613138e-02 
  4.748514522449e-02 
  4.720808834197e-02 
  4.673776066281e-02 
  4.580383561247e-02 
  4.685310810596e-02 
  4.798215963466e-02 
  4.940309442810e-02 
  5.124455055482e-02 
  5.365195155119e-02 
  5.676996363366e-02 
  4.723363598201e-02 
  4.847827086554e-02 
  5.011951247076e-02 
  5.232031782789e-02 
  5.522422231564e-02 
  4.753350583958e-02 
  4.894011745125e-02 
  5.087169521114e-02 
  5.349439682767e-02 
  4.773734339622e-02 
  4.934948686758e-02 
  5.161087804917e-02 
  4.779841739338e-02 
  4.962198174753e-02 
  4.758410649763e-02 
  5.677020595927e-02 
  5.365201182388e-02 
  5.124464989655e-02 
  4.940315346110e-02 
  4.798223622903e-02 
  4.685299399696e-02 
  5.517266345392e-02 
  5.261072485512e-02 
  5.058462363879e-02 
  4.897332645388e-02 
  4.766182380157e-02 
  5.373671697932e-02 
  5.161830135599e-02 
  4.988259812937e-02 
  4.843973321408e-02 
  5.247307043040e-02 
  5.068287518962e-02 
  4.915731687704e-02 
  5.135117061238e-02 
  4.979788696306e-02 
  5.034283755537e-02 
  6.287300939273e-02 
  6.212396460370e-02 
  6.112075520790e-02 
  5.987492064324e-02 
  5.840945550733e-02 
  5.677251849732e-02 
  5.927578122822e-02 
  5.849263612424e-02 
  5.752903113515e-02 
  5.641106606510e-02 
  5.517243309167e-02 
  5.632246090416e-02 
  5.556501217257e-02 
  5.469629623036e-02 
  5.373704209192e-02 
  5.393485243552e-02 
  5.323818119296e-02 
  5.247278569688e-02 
  5.198423675565e-02 
  5.135111531484e-02 
  5.034157055207e-02 
  5.544263071393e-02 
  5.498866693759e-02 
  5.327986504537e-02 