# vtk DataFile Version 2
NuDG++ 2D simulation
ASCII
DATASET UNSTRUCTURED_GRID

POINTS 7854 double
 -1.656250060000e-01  -2.000000030000e-01  0.0
 -1.725000054000e-01  -1.908888817000e-01  0.0
 -1.793750048000e-01  -1.817777604000e-01  0.0
 -1.862500042000e-01  -1.726666391000e-01  0.0
 -1.931250036000e-01  -1.635555178000e-01  0.0
 -2.000000030000e-01  -1.544443965000e-01  0.0
 -1.725000054000e-01  -2.000000030000e-01  0.0
 -1.793750048000e-01  -1.908888817000e-01  0.0
 -1.862500042000e-01  -1.817777604000e-01  0.0
 -1.931250036000e-01  -1.726666391000e-01  0.0
 -2.000000030000e-01  -1.635555178000e-01  0.0
 -1.793750048000e-01  -2.000000030000e-01  0.0
 -1.862500042000e-01  -1.908888817000e-01  0.0
 -1.931250036000e-01  -1.817777604000e-01  0.0
 -2.000000030000e-01  -1.726666391000e-01  0.0
 -1.862500042000e-01  -2.000000030000e-01  0.0
 -1.931250036000e-01  -1.908888817000e-01  0.0
 -2.000000030000e-01  -1.817777604000e-01  0.0
 -1.931250036000e-01  -2.000000030000e-01  0.0
 -2.000000030000e-01  -1.908888817000e-01  0.0
 -2.000000030000e-01  -2.000000030000e-01  0.0
 -6.428571790000e-02  -1.700000018000e-01  0.0
 -7.080357372400e-02  -1.760000020400e-01  0.0
 -7.732142954800e-02  -1.820000022800e-01  0.0
 -8.383928537200e-02  -1.880000025200e-01  0.0
 -9.035714119600e-02  -1.940000027600e-01  0.0
 -9.687499702000e-02  -2.000000030000e-01  0.0
 -6.392857432000e-02  -1.760000020400e-01  0.0
 -7.044643014400e-02  -1.820000022800e-01  0.0
 -7.696428596800e-02  -1.880000025200e-01  0.0
 -8.348214179200e-02  -1.940000027600e-01  0.0
 -8.999999761600e-02  -2.000000030000e-01  0.0
 -6.357143074000e-02  -1.820000022800e-01  0.0
 -7.008928656400e-02  -1.880000025200e-01  0.0
 -7.660714238800e-02  -1.940000027600e-01  0.0
 -8.312499821200e-02  -2.000000030000e-01  0.0
 -6.321428716000e-02  -1.880000025200e-01  0.0
 -6.973214298400e-02  -1.940000027600e-01  0.0
 -7.624999880800e-02  -2.000000030000e-01  0.0
 -6.285714358000e-02  -1.940000027600e-01  0.0
 -6.937499940400e-02  -2.000000030000e-01  0.0
 -6.250000000000e-02  -2.000000030000e-01  0.0
 -2.000000030000e-01  -1.544443965000e-01  0.0
 -1.900000036000e-01  -1.478412374800e-01  0.0
 -1.800000042000e-01  -1.412380784600e-01  0.0
 -1.700000048000e-01  -1.346349194400e-01  0.0
 -1.600000054000e-01  -1.280317604200e-01  0.0
 -1.500000060000e-01  -1.214286014000e-01  0.0
 -2.000000030000e-01  -1.453332975600e-01  0.0
 -1.900000036000e-01  -1.387301385400e-01  0.0
 -1.800000042000e-01  -1.321269795200e-01  0.0
 -1.700000048000e-01  -1.255238205000e-01  0.0
 -1.600000054000e-01  -1.189206614800e-01  0.0
 -2.000000030000e-01  -1.362221986200e-01  0.0
 -1.900000036000e-01  -1.296190396000e-01  0.0
 -1.800000042000e-01  -1.230158805800e-01  0.0
 -1.700000048000e-01  -1.164127215600e-01  0.0
 -2.000000030000e-01  -1.271110996800e-01  0.0
 -1.900000036000e-01  -1.205079406600e-01  0.0
 -1.800000042000e-01  -1.139047816400e-01  0.0
 -2.000000030000e-01  -1.180000007400e-01  0.0
 -1.900000036000e-01  -1.113968417200e-01  0.0
 -2.000000030000e-01  -1.088889018000e-01  0.0
 -1.500000060000e-01  -1.214286014000e-01  0.0
 -1.600000054000e-01  -1.280317604200e-01  0.0
 -1.700000048000e-01  -1.346349194400e-01  0.0
 -1.800000042000e-01  -1.412380784600e-01  0.0
 -1.900000036000e-01  -1.478412374800e-01  0.0
 -2.000000030000e-01  -1.544443965000e-01  0.0
 -1.500000060000e-01  -1.311428814800e-01  0.0
 -1.600000054000e-01  -1.377460405000e-01  0.0
 -1.700000048000e-01  -1.443491995200e-01  0.0
 -1.800000042000e-01  -1.509523585400e-01  0.0
 -1.900000036000e-01  -1.575555175600e-01  0.0
 -1.500000060000e-01  -1.408571615600e-01  0.0
 -1.600000054000e-01  -1.474603205800e-01  0.0
 -1.700000048000e-01  -1.540634796000e-01  0.0
 -1.800000042000e-01  -1.606666386200e-01  0.0
 -1.500000060000e-01  -1.505714416400e-01  0.0
 -1.600000054000e-01  -1.571746006600e-01  0.0
 -1.700000048000e-01  -1.637777596800e-01  0.0
 -1.500000060000e-01  -1.602857217200e-01  0.0
 -1.600000054000e-01  -1.668888807400e-01  0.0
 -1.500000060000e-01  -1.700000018000e-01  0.0
 -1.500000060000e-01  -7.285714149000e-02  0.0
 -1.600000054000e-01  -8.006349355200e-02  0.0
 -1.700000048000e-01  -8.726984561400e-02  0.0
 -1.800000042000e-01  -9.447619767600e-02  0.0
 -1.900000036000e-01  -1.016825497380e-01  0.0
 -2.000000030000e-01  -1.088889018000e-01  0.0
 -1.500000060000e-01  -8.257143347200e-02  0.0
 -1.600000054000e-01  -8.977778553400e-02  0.0
 -1.700000048000e-01  -9.698413759600e-02  0.0
 -1.800000042000e-01  -1.041904896580e-01  0.0
 -1.900000036000e-01  -1.113968417200e-01  0.0
 -1.500000060000e-01  -9.228572545400e-02  0.0
 -1.600000054000e-01  -9.949207751600e-02  0.0
 -1.700000048000e-01  -1.066984295780e-01  0.0
 -1.800000042000e-01  -1.139047816400e-01  0.0
 -1.500000060000e-01  -1.020000174360e-01  0.0
 -1.600000054000e-01  -1.092063694980e-01  0.0
 -1.700000048000e-01  -1.164127215600e-01  0.0
 -1.500000060000e-01  -1.117143094180e-01  0.0
 -1.600000054000e-01  -1.189206614800e-01  0.0
 -1.500000060000e-01  -1.214286014000e-01  0.0
  1.832975030000e+00  -4.625000060000e-02  0.0
  1.841380024000e+00  -7.700000108000e-02  0.0
  1.849785018000e+00  -1.077500015600e-01  0.0
  1.858190012000e+00  -1.385000020400e-01  0.0
  1.866595006000e+00  -1.692500025200e-01  0.0
  1.875000000000e+00  -2.000000030000e-01  0.0
  1.866380024000e+00  -5.649999976400e-02  0.0
  1.874785018000e+00  -8.725000024400e-02  0.0
  1.883190012000e+00  -1.180000007240e-01  0.0
  1.891595006000e+00  -1.487500012040e-01  0.0
  1.900000000000e+00  -1.795000016840e-01  0.0
  1.899785018000e+00  -6.674999892800e-02  0.0
  1.908190012000e+00  -9.749999940800e-02  0.0
  1.916595006000e+00  -1.282499998880e-01  0.0
  1.925000000000e+00  -1.590000003680e-01  0.0
  1.933190012000e+00  -7.699999809200e-02  0.0
  1.941595006000e+00  -1.077499985720e-01  0.0
  1.950000000000e+00  -1.384999990520e-01  0.0
  1.966595006000e+00  -8.724999725600e-02  0.0
  1.975000000000e+00  -1.179999977360e-01  0.0
  2.000000000000e+00  -9.749999642000e-02  0.0
 -1.500000060000e-01  -1.700000018000e-01  0.0
 -1.444000050800e-01  -1.630000025200e-01  0.0
 -1.388000041600e-01  -1.560000032400e-01  0.0
 -1.332000032400e-01  -1.490000039600e-01  0.0
 -1.276000023200e-01  -1.420000046800e-01  0.0
 -1.220000014000e-01  -1.350000054000e-01  0.0
 -1.500000060000e-01  -1.602857217200e-01  0.0
 -1.444000050800e-01  -1.532857224400e-01  0.0
 -1.388000041600e-01  -1.462857231600e-01  0.0
 -1.332000032400e-01  -1.392857238800e-01  0.0
 -1.276000023200e-01  -1.322857246000e-01  0.0
 -1.500000060000e-01  -1.505714416400e-01  0.0
 -1.444000050800e-01  -1.435714423600e-01  0.0
 -1.388000041600e-01  -1.365714430800e-01  0.0
 -1.332000032400e-01  -1.295714438000e-01  0.0
 -1.500000060000e-01  -1.408571615600e-01  0.0
 -1.444000050800e-01  -1.338571622800e-01  0.0
 -1.388000041600e-01  -1.268571630000e-01  0.0
 -1.500000060000e-01  -1.311428814800e-01  0.0
 -1.444000050800e-01  -1.241428822000e-01  0.0
 -1.500000060000e-01  -1.214286014000e-01  0.0
  2.849999964000e-01  -2.333333530000e-02  0.0
  2.844999968800e-01  -4.666666836000e-02  0.0
  2.839999973600e-01  -7.000000142000e-02  0.0
  2.834999978400e-01  -9.333333448000e-02  0.0
  2.829999983200e-01  -1.166666675400e-01  0.0
  2.824999988000e-01  -1.400000006000e-01  0.0
  2.979999959200e-01  -3.266666830000e-02  0.0
  2.974999964000e-01  -5.600000136000e-02  0.0
  2.969999968800e-01  -7.933333442000e-02  0.0
  2.964999973600e-01  -1.026666674800e-01  0.0
  2.959999978400e-01  -1.260000005400e-01  0.0
  3.109999954400e-01  -4.200000130000e-02  0.0
  3.104999959200e-01  -6.533333436000e-02  0.0
  3.099999964000e-01  -8.866666742000e-02  0.0
  3.094999968800e-01  -1.120000004800e-01  0.0
  3.239999949600e-01  -5.133333430000e-02  0.0
  3.234999954400e-01  -7.466666736000e-02  0.0
  3.229999959200e-01  -9.800000042000e-02  0.0
  3.369999944800e-01  -6.066666730000e-02  0.0
  3.364999949600e-01  -8.400000036000e-02  0.0
  3.499999940000e-01  -7.000000030000e-02  0.0
 -1.071429029000e-01  -1.700000018000e-01  0.0
 -9.857146590000e-02  -1.700000018000e-01  0.0
 -9.000002890000e-02  -1.700000018000e-01  0.0
 -8.142859190000e-02  -1.700000018000e-01  0.0
 -7.285715490000e-02  -1.700000018000e-01  0.0
 -6.428571790000e-02  -1.700000018000e-01  0.0
 -1.037143230360e-01  -1.630000025200e-01  0.0
 -9.514288603600e-02  -1.630000025200e-01  0.0
 -8.657144903600e-02  -1.630000025200e-01  0.0
 -7.800001203600e-02  -1.630000025200e-01  0.0
 -6.942857503600e-02  -1.630000025200e-01  0.0
 -1.002857431720e-01  -1.560000032400e-01  0.0
 -9.171430617200e-02  -1.560000032400e-01  0.0
 -8.314286917200e-02  -1.560000032400e-01  0.0
 -7.457143217200e-02  -1.560000032400e-01  0.0
 -9.685716330800e-02  -1.490000039600e-01  0.0
 -8.828572630800e-02  -1.490000039600e-01  0.0
 -7.971428930800e-02  -1.490000039600e-01  0.0
 -9.342858344400e-02  -1.420000046800e-01  0.0
 -8.485714644400e-02  -1.420000046800e-01  0.0
 -9.000000358000e-02  -1.350000054000e-01  0.0
 -1.312499940000e-01  -2.000000030000e-01  0.0
 -1.264285757800e-01  -1.940000027600e-01  0.0
 -1.216071575600e-01  -1.880000025200e-01  0.0
 -1.167857393400e-01  -1.820000022800e-01  0.0
 -1.119643211200e-01  -1.760000020400e-01  0.0
 -1.071429029000e-01  -1.700000018000e-01  0.0
 -1.349999964000e-01  -1.940000027600e-01  0.0
 -1.301785781800e-01  -1.880000025200e-01  0.0
 -1.253571599600e-01  -1.820000022800e-01  0.0
 -1.205357417400e-01  -1.760000020400e-01  0.0
 -1.157143235200e-01  -1.700000018000e-01  0.0
 -1.387499988000e-01  -1.880000025200e-01  0.0
 -1.339285805800e-01  -1.820000022800e-01  0.0
 -1.291071623600e-01  -1.760000020400e-01  0.0
 -1.242857441400e-01  -1.700000018000e-01  0.0
 -1.425000012000e-01  -1.820000022800e-01  0.0
 -1.376785829800e-01  -1.760000020400e-01  0.0
 -1.328571647600e-01  -1.700000018000e-01  0.0
 -1.462500036000e-01  -1.760000020400e-01  0.0
 -1.414285853800e-01  -1.700000018000e-01  0.0
 -1.500000060000e-01  -1.700000018000e-01  0.0
[...]
POINT_DATA 7854
SCALARS field1 double 1
LOOKUP_TABLE default
  1.339099619642e-05 
  5.873047696272e-03 
  5.803603497029e-03 
  5.672663985146e-03 
  6.202921606747e-03 
  7.180635810914e-03 
 -2.604747495288e-06 
  4.956353135297e-03 
  4.800941410360e-03 
  4.898002089842e-03 
  5.874235120812e-03 
 -1.471486823214e-06 
  3.785771743700e-03 
  3.748064894803e-03 
  4.519914962663e-03 
  1.939935392535e-05 
  2.400122053779e-03 
  3.088950239329e-03 
 -2.861702203165e-07 
  1.567346599418e-03 
  5.873889121523e-06 
  1.340427323448e-02 
  1.315443625330e-02 
  1.283027369854e-02 
  1.212043487373e-02 
  9.321159916604e-03 
 -1.185101257725e-06 
  1.337607081398e-02 
  1.305918436801e-02 
  1.235769019202e-02 
  9.521905485202e-03 
 -6.298992556467e-07 
  1.327352197501e-02 
  1.257723850295e-02 
  9.709795636654e-03 
 -5.986571094384e-07 
  1.278252803596e-02 
  9.885680847893e-03 
 -6.757320529678e-07 
  1.004731550463e-02 
 -5.518459214429e-07 
 -7.415624723622e-07 
  7.164556831181e-03 
  8.359951296369e-03 
  9.471152182001e-03 
  1.035322668963e-02 
  1.108258618362e-02 
  1.167772816981e-02 
  8.377631604631e-03 
  9.387872139079e-03 
  1.033451046197e-02 
  1.106702367400e-02 
  1.168536600543e-02 
  9.528775488308e-03 
  1.039323654127e-02 
  1.112909482030e-02 
  1.175516255255e-02 
  1.060429303449e-02 
  1.131427323299e-02 
  1.190806784872e-02 
  1.161045449285e-02 
  1.219753050527e-02 
  1.253564145196e-02 
  1.168046674812e-02 
  1.108327451435e-02 
  1.035640179187e-02 
  9.468949831670e-03 
  8.362797684332e-03 
  7.164256364196e-03 
  1.114483027140e-02 
  1.049213506911e-02 
  9.634674597355e-03 
  8.526849467995e-03 
  7.162617309081e-03 
  1.067796161648e-02 
  9.900242570619e-03 
  8.880921340684e-03 
  7.616696478827e-03 
  1.022488196951e-02 
  9.310487077276e-03 
  8.159434807176e-03 
  9.785628554579e-03 
  8.765608179432e-03 
  9.411978508892e-03 
  1.363293547048e-02 
  1.361510106619e-02 
  1.355611441758e-02 
  1.338138531571e-02 
  1.307627136609e-02 
  1.253780731563e-02 
  1.327483165487e-02 
  1.321690802855e-02 
  1.301939622203e-02 
  1.268210832710e-02 
  1.219699461091e-02 
  1.295787252073e-02 
  1.276158006564e-02 
  1.240080362621e-02 
  1.191034773996e-02 
  1.262358795906e-02 
  1.225468344538e-02 
  1.175227972657e-02 
  1.221718635414e-02 
  1.168448303074e-02 
  1.167872092996e-02 
  1.380426093893e-02 
  1.167131015315e-02 
  1.214246327312e-02 
  1.144235787340e-02 
  1.299488848401e-02 
  9.346494447629e-04 
  1.224984185026e-02 
  1.227895283419e-02 
  1.195151948547e-02 
  1.164812880519e-02 
  1.198541281703e-02 
  1.228067376172e-02 
  1.222615495691e-02 
  1.185236023465e-02 
  1.181032565421e-02 
  1.220218174242e-02 
  1.208585354030e-02 
  1.188072292980e-02 
  1.242168621614e-02 
  1.158601047084e-02 
  1.337058229532e-02 
  9.409137009991e-03 
  1.001732816369e-02 
  1.058023750922e-02 
  1.107111349668e-02 
  1.151972143221e-02 
  1.196091873830e-02 
  9.786657567566e-03 
  1.039446138650e-02 
  1.092544366563e-02 
  1.140996492148e-02 
  1.183194528620e-02 
  1.022618484435e-02 
  1.079615506913e-02 
  1.130485937381e-02 
  1.176000831396e-02 
  1.068017766556e-02 
  1.122615516790e-02 
  1.169489589206e-02 
  1.114882883947e-02 
  1.167387425804e-02 
  1.168151597866e-02 
  1.245424326654e-02 
  1.216649036601e-02 
  1.226343014121e-02 
  1.238295946147e-02 
  1.228392715022e-02 
  1.330198888740e-02 
  1.226278945472e-02 
  1.221225609747e-02 
  1.230705723067e-02 
  1.232186737527e-02 
  1.240469658084e-02 
  1.226285208078e-02 
  1.226506900388e-02 
  1.231459841842e-02 
  1.231012262044e-02 
  1.227204966027e-02 
  1.229435533974e-02 
  1.225898331037e-02 
  1.224840382266e-02 
  1.235574083400e-02 
  1.206493089239e-02 
  1.181644406084e-02 
  1.217640532997e-02 
  1.251848256838e-02 
  1.283709916236e-02 
  1.313238838338e-02 
  1.340683233431e-02 
  1.205284727204e-02 
  1.239701429794e-02 
  1.271862815589e-02 
  1.302855009807e-02 
  1.331794908171e-02 
  1.229083208343e-02 
  1.261620474083e-02 
  1.292650058431e-02 
  1.322721179448e-02 
  1.252686024415e-02 
  1.283728817965e-02 
  1.313836194681e-02 
  1.275997179751e-02 
  1.306053192345e-02 
  1.298993460166e-02 
 -5.790940151379e-06 
  7.990843280826e-03 
  1.046284063043e-02 
  1.115294503944e-02 
  1.151031435644e-02 
  1.182057739540e-02 
  7.578581485741e-03 
  9.973421776105e-03 
  1.069317221003e-02 
  1.108695289982e-02 
  1.141215001369e-02 
  9.419454135093e-03 
  1.017411329610e-02 
  1.061454396082e-02 
  1.098084630623e-02 
  9.578633422710e-03 
  1.008760413968e-02 
  1.050628663992e-02 
  9.489905946725e-03 
  9.982624776308e-03 
  9.402998856581e-03 
  1.195323553727e-02 
  1.214374512603e-02 
  1.235160669131e-02 
  1.255952161094e-02 
  1.277366576715e-02 
  1.298874825431e-02 
  1.215990735936e-02 
  1.234345769613e-02 
  1.253404471159e-02 
  1.272917357058e-02 
  1.293050841559e-02 
  1.236930045006e-02 
  1.252897318599e-02 
  1.270053439576e-02 
  1.288278956800e-02 
  1.255831894878e-02 
  1.269528687419e-02 
  1.284717237780e-02 
  1.271616140104e-02 
  1.283546986146e-02 
  1.284495220621e-02 
  1.298911840135e-02 
  1.277360238258e-02 
  1.255974339390e-02 
  1.235136875905e-02 
  1.214390999138e-02 
  1.195316192005e-02 
  1.275953628466e-02 
  1.253686848506e-02 
  1.230975459215e-02 
  1.208203598735e-02 
  1.184285512977e-02 
  1.252629829631e-02 
  1.229124879134e-02 
  1.204730244225e-02 
  1.179490441831e-02 
  1.229046656126e-02 
  1.203935752322e-02 
  1.177475805148e-02 
  1.205225995158e-02 
  1.177965020371e-02 
  1.181790623459e-02 
  1.375175546059e-02 
  1.349672330645e-02 
  1.329148212517e-02 
  1.312274914877e-02 
  1.297767494015e-02 
  1.284475754751e-02 
  1.367285610908e-02 
  1.342274107739e-02 
  1.320490187399e-02 
  1.301151982003e-02 
  1.283537098516e-02 
  1.354715393555e-02 
  1.329429155282e-02 
  1.306403797708e-02 
  1.284744507228e-02 
  1.338413550156e-02 
  1.312807559060e-02 
  1.288295889266e-02 
  1.319653391141e-02 
  1.293053864151e-02 
  1.298975082012e-02 
  1.195577748264e-02 
  1.216034822207e-02 
  1.236952255812e-02 
  1.255890703897e-02 
  1.271601740438e-02 
  1.284489471488e-02 
  1.183347037358e-02 
  1.208645402899e-02 
  1.230950402950e-02 
  1.250872033889e-02 
  1.268243586694e-02 
  1.175874331405e-02 
  1.202729501863e-02 
  1.227746460094e-02 
  1.249187612121e-02 
  1.169607208278e-02 
  1.200033945981e-02 
  1.228016287287e-02 
  1.167373132622e-02 
  1.201487049406e-02 
  1.168359086622e-02 
  1.375153031960e-02 
  1.367303018222e-02 
  1.354710800165e-02 
  1.338413719743e-02 
  1.319623025653e-02 
  1.299090508046e-02 
  1.394996035925e-02 
  1.382889055763e-02 
  1.367027970914e-02 
  1.348856982907e-02 
  1.329160059583e-02 
  1.414272336186e-02 
  1.397816358348e-02 
  1.379140971946e-02 
  1.359314964169e-02 
  1.432133989807e-02 
  1.411720647079e-02 
  1.390483403786e-02 
  1.448049934756e-02 
  1.424077801292e-02 
  1.461421832221e-02 
  1.181924601595e-02 
  1.177930221127e-02 
  1.177484984279e-02 
  1.179518088495e-02 
  1.184189333415e-02 
  1.195677838456e-02 
  1.141220337457e-02 
  1.138967990630e-02 
  1.139749512832e-02 
  1.144098461930e-02 
  1.152077173253e-02 
  1.098030775167e-02 
  1.096742836313e-02 
  1.100090582641e-02 
  1.107174985209e-02 
  1.050655900957e-02 
  1.051547886657e-02 
  1.058027001487e-02 
  9.981886609997e-03 
  1.001791376308e-02 
  9.405985949229e-03 
 -5.452704934694e-07 
 -6.386806105979e-07 
 -6.049950206229e-07 
 -7.345965940754e-07 
 -6.909848267312e-07 
 -1.532918528703e-06 
  1.093368852779e-02 
  1.092000657033e-02 
  1.086163829689e-02 
  1.076465544856e-02 
  1.063794648059e-02 
  1.392356943048e-02 
  1.389094185477e-02 
  1.380538769304e-02 
  1.367226870763e-02 
  1.446554979728e-02 
  1.441725165875e-02 
  1.431683731473e-02 
  1.458161813854e-02 
  1.451457046852e-02 
  1.462048225385e-02 
  1.363006542607e-02 
  1.327703982710e-02 
  1.295842885158e-02 
  1.262249233357e-02 
  1.221415612693e-02 
  1.168260239984e-02 
  1.330514331594e-02 
  1.304251780826e-02 
  1.274987428837e-02 
  1.241299249329e-02 
  1.201534326081e-02 
  1.308897977961e-02 
  1.286303027735e-02 
  1.259311532953e-02 
  1.228013090051e-02 
  1.295704591494e-02 
  1.274152925595e-02 
  1.249117031992e-02 
  1.286883980910e-02 
  1.268269169356e-02 
  1.284427735981e-02 
  1.613005821939e-02 
  1.562653443057e-02 
  1.500479545622e-02 
  1.446936189505e-02 
  1.400097633755e-02 
  1.362814327661e-02 
  1.614953429619e-02 
  1.545413106260e-02 
  1.483486101673e-02 
  1.433519628102e-02 
  1.393549669594e-02 
  1.582915258083e-02 
  1.516230513290e-02 
  1.457994922014e-02 
  1.409933095706e-02 
  1.542102260967e-02 
  1.478010007417e-02 
  1.419534416177e-02 
  1.492845633858e-02 
  1.429606460233e-02 
  1.444690806870e-02 
  1.612374224860e-02 
  1.555136095772e-02 
  1.490560177359e-02 
  1.418609320219e-02 
  1.339638157927e-02 
  1.253765960513e-02 
  1.562740419648e-02 
  1.509390404705e-02 
  1.448574006590e-02 
  1.381516546003e-02 
  1.307762033417e-02 
  1.500137032590e-02 
  1.450621843598e-02 
  1.397837574025e-02 
  1.338273139407e-02 
  1.447349956678e-02 
  1.403850003230e-02 
  1.355511616500e-02 
  1.399977382034e-02 
  1.361336464374e-02 
  1.363547182990e-02 
  1.612442350923e-02 
  1.615202157728e-02 
  1.582918990440e-02 
  1.542135880983e-02 
  1.492659325655e-02 
  1.445276024322e-02 
  1.662207054526e-02 
  1.655712533533e-02 
  1.611546021812e-02 
  1.563326794215e-02 
  1.507287391331e-02 
  1.705275893136e-02 
  1.688538102988e-02 
  1.634661190871e-02 
  1.580103666261e-02 
  1.741344310453e-02 
  1.716104212088e-02 
  1.654389559811e-02 
  1.770078231047e-02 
  1.735469795263e-02 
  1.791728233567e-02 
  1.444111156850e-02 
  1.429600934496e-02 
  1.419443462872e-02 
  1.409720422777e-02 
  1.393088558611e-02 
  1.362792173220e-02 
  1.387285088384e-02 
  1.382173275656e-02 
  1.376539879910e-02 
  1.369251490046e-02 
  1.356592284882e-02 
  1.335205169054e-02 
  1.336973618681e-02 
  1.337751238667e-02 
  1.336202456759e-02 
  1.286186126314e-02 
  1.295070019614e-02 
  1.302782292337e-02 
  1.239424576123e-02 
  1.258232051134e-02 
  1.192947076632e-02 
  1.158364896957e-02 
  1.226568996076e-02 
  1.286329609634e-02 
  1.342929383648e-02 
  1.394444950952e-02 
  1.443913962578e-02 
  1.157329449914e-02 
  1.224418613451e-02 
  1.284895722452e-02 
  1.338620497820e-02 
  1.387308460754e-02 
  1.158797768503e-02 
  1.226454921475e-02 
  1.284772436567e-02 
  1.335166867475e-02 
  1.166187779669e-02 
  1.231824256367e-02 
  1.286204670161e-02 
  1.178681542434e-02 
  1.239371446544e-02 
  1.193228388282e-02 
  1.444186961273e-02 
  1.452179450052e-02 
  1.453836901484e-02 
  1.454001110888e-02 
  1.455373547600e-02 
  1.457769465448e-02 
  1.507481508357e-02 
  1.518175467202e-02 
  1.522572943259e-02 
  1.525082547424e-02 
  1.522778610613e-02 
  1.579658954089e-02 
  1.589300370510e-02 
  1.596173538301e-02 
  1.598812888571e-02 
  1.654789806714e-02 
  1.668396434454e-02 
  1.675236671628e-02 
  1.735284161337e-02 
  1.751096558905e-02 
  1.792753969779e-02 
  1.362742325442e-02 
  1.338822339191e-02 
  1.317663379882e-02 
  1.299938195213e-02 
  1.286493673924e-02 
  1.279467699957e-02 
  1.356566852845e-02 
  1.326529592454e-02 
  1.300274220558e-02 
  1.277595819873e-02 
  1.259172888441e-02 
  1.336164205893e-02 
  1.301338606097e-02 
  1.268929276067e-02 
  1.239596168688e-02 
  1.302871756522e-02 
  1.261955159809e-02 
  1.221409092456e-02 
  1.258186119248e-02 
  1.206018491437e-02 
  1.193236162780e-02 
  1.317209632035e-02 
  1.254823230820e-02 
  1.242192210827e-02 
  1.238130370952e-02 
  1.243757690811e-02 
  1.294834839586e-02 
  1.215051941505e-02 
  1.239084517321e-02 
  1.236884089444e-02 
  1.241979465367e-02 
  1.231249074729e-02 
  1.230716665012e-02 
  1.216270368384e-02 
  1.218485581959e-02 
  1.195165927830e-02 
  1.217960310713e-02 
  1.214695143153e-02 
  1.213528135625e-02 
  1.171080410873e-02 
  1.255519510635e-02 
  5.322696302581e-04 
  1.134950308764e-02 
  1.182630577524e-02 
  1.217633471496e-02 
  1.244269352345e-02 
  1.264451676729e-02 
  1.279712484167e-02 
  1.185064609771e-02 
  1.220738808145e-02 
  1.247206225698e-02 
  1.267116649974e-02 
  1.281598783828e-02 
  1.238448544089e-02 
  1.261701051594e-02 
  1.278828756963e-02 
  1.291430103695e-02 
  1.293329659477e-02 
  1.304075332513e-02 
  1.311528361100e-02 
  1.347979783716e-02 
  1.346473991023e-02 
  1.400587646182e-02 
  1.279404737043e-02 
  1.286503703152e-02 
  1.299923407311e-02 
  1.317661307119e-02 
  1.338786318285e-02 
  1.362829784664e-02 
  1.295722938287e-02 
  1.297287067578e-02 
  1.305315953559e-02 
  1.316671105631e-02 
  1.330541293095e-02 
  1.302973851635e-02 
  1.300853100741e-02 
  1.303335325090e-02 
  1.308850743608e-02 
  1.303225566783e-02 
  1.297366050370e-02 
  1.295585561589e-02 
  1.297461810133e-02 
  1.286843748037e-02 
  1.284437438455e-02 
  5.538488984549e-03 
  6.525715628189e-03 
  7.349998373500e-03 
  8.055551246130e-03 
  8.668319069194e-03 
  9.217064500567e-03 
  6.001657093204e-03 
  6.908575940472e-03 
  7.674087506231e-03 
  8.332593197460e-03 
  8.901025870347e-03 
  6.573000990921e-03 
  7.405919259512e-03 
  8.091638474047e-03 
  8.683747191035e-03 
  7.273265270689e-03 
  8.002428382726e-03 
  8.591533574811e-03 
  8.094414341614e-03 
  8.685358547244e-03 
  8.998848624169e-03 
  9.216696359172e-03 
  9.953654141910e-03 
  1.057540074887e-02 
  1.109929567941e-02 
  1.155170649892e-02 
  1.193678034215e-02 
  9.496125648926e-03 
  1.017951877214e-02 
  1.074804219849e-02 
  1.122918780986e-02 
  1.164519312794e-02 
  9.873730022934e-03 
  1.047089823503e-02 
  1.097157990400e-02 
  1.139847849575e-02 
  1.032537018033e-02 
  1.081793215138e-02 
  1.123783252110e-02 
  1.082469989804e-02 
  1.120599889994e-02 
  1.135016670042e-02 
  1.134848997152e-02 
  1.104908375341e-02 
  1.067754550155e-02 
  1.024049810974e-02 
  9.705626995331e-03 
  8.998949188940e-03 
  1.082393810039e-02 
  1.042288721311e-02 
  9.950116198526e-03 
  9.382241755235e-03 
  8.685408063784e-03 
  1.032513028816e-02 
  9.841687702158e-03 
  9.271099727000e-03 
  8.591430124333e-03 
  9.873331329076e-03 
  9.326934894127e-03 
  8.683673986182e-03 
  9.495604889521e-03 
  8.901084188815e-03 
  9.217086980282e-03 
  9.217278141200e-03 
  9.533732982093e-03 
  9.997589617646e-03 
  1.052333315646e-02 
  1.107584611511e-02 
  1.158852698870e-02 
  9.953840840750e-03 
  1.023538183254e-02 
  1.062868908144e-02 
  1.108721564597e-02 
  1.157298630303e-02 
  1.057570847267e-02 
  1.082752074618e-02 
  1.117861098269e-02 
  1.158812172256e-02 
  1.109915803437e-02 
  1.133917096115e-02 
  1.166213774546e-02 
  1.155204790519e-02 
  1.178681845916e-02 
  1.193508501485e-02 
  1.375125320050e-02 
  1.385919410962e-02 
  1.394648878770e-02 
  1.400909564193e-02 
  1.403692246212e-02 
  1.400632186919e-02 
  1.357306936004e-02 
  1.362064459960e-02 
  1.362744772465e-02 
  1.358070791241e-02 
  1.346467464857e-02 
  1.338056050309e-02 
  1.335890149098e-02 
  1.327717230287e-02 
  1.311539852696e-02 
  1.318212795322e-02 
  1.308677264996e-02 
  1.291418285685e-02 
  1.298310955631e-02 
  1.281606871586e-02 
  1.279670732128e-02 
  1.135116306336e-02 
  1.120584392968e-02 
  1.123810785158e-02 
  1.139825153489e-02 
  1.164540275082e-02 
  1.193571820166e-02 
  1.182624736507e-02 
  1.169564371577e-02 
  1.171785211984e-02 
  1.184945273220e-02 
  1.206081567208e-02 
  1.217656838263e-02 
  1.207516171254e-02 
  1.209570200823e-02 
  1.221440265258e-02 
  1.244256317060e-02 
  1.236734597315e-02 
  1.239605750820e-02 
  1.264473823746e-02 
  1.259196588593e-02 
  1.279597952602e-02 
  1.375157445889e-02 
  1.357290521150e-02 
  1.338047986116e-02 
  1.318206905362e-02 
  1.298295448413e-02 
  1.279510259603e-02 
  1.349677811935e-02 
  1.336270019655e-02 
  1.322283755123e-02 
  1.308377787315e-02 
  1.295684270849e-02 
  1.329150062489e-02 
  1.320022306191e-02 
  1.311172708313e-02 
  1.303005535223e-02 
  1.312278893472e-02 
  1.307297488006e-02 
  1.303236545185e-02 
  1.297784375714e-02 
  1.297441120497e-02 
  1.284436152771e-02 
  9.216793411779e-03 
  8.668478760859e-03 
  8.055573351023e-03 
  7.349744076600e-03 
  6.525878821605e-03 
  5.538470541246e-03 
  8.851800726840e-03 
  8.258320402396e-03 
  7.581176442851e-03 
  6.797794966294e-03 
  5.888945455191e-03 
  8.579807491247e-03 
  7.950851060534e-03 
  7.235011316978e-03 
  6.409430289550e-03 
  8.407129116868e-03 
  7.765027829273e-03 
  7.040459921244e-03 
  8.340921056841e-03 
  7.710515261460e-03 
  8.373599089996e-03 
  1.461459517754e-02 
  1.424061230520e-02 
  1.390498104282e-02 
  1.359300956793e-02 
  1.329153107539e-02 
  1.299095298172e-02 
  1.431711786087e-02 
  1.398590862660e-02 
  1.367164781490e-02 
  1.336591545598e-02 
  1.306074579737e-02 
  1.404653080277e-02 
  1.373925132934e-02 
  1.343959970464e-02 
  1.313876136213e-02 
  1.380139166918e-02 
  1.351658262975e-02 
  1.322739210820e-02 
  1.359278190560e-02 
  1.331862620724e-02 
  1.340684049465e-02 
  1.363688006160e-02 
  1.222170841612e-02 
  1.223455201897e-02 
  1.219013238732e-02 
  1.235367755543e-02 
  1.343953078982e-02 
  1.213203234361e-02 
  1.198518364323e-02 
  1.201851551921e-02 
  1.201031532605e-02 
  1.214649853062e-02 
  1.202842412761e-02 
  1.203661560281e-02 
  1.205991241650e-02 
  1.213338685196e-02 
  1.202005992828e-02 
  1.196677180335e-02 
  1.194058995273e-02 
  1.203138400113e-02 
  1.229510704562e-02 
  1.215051064194e-02 
  1.524277688844e-02 
  1.500101855228e-02 
  1.479567819134e-02 
  1.463512238354e-02 
  1.451074710674e-02 
  1.440657491331e-02 
  1.535322835985e-02 
  1.509311585758e-02 
  1.487705004423e-02 
  1.470942782439e-02 
  1.457802445794e-02 
  1.543724852890e-02 
  1.516197070586e-02 
  1.493827531014e-02 
  1.476405140501e-02 
  1.549129390903e-02 
  1.520715785386e-02 
  1.497741183924e-02 
  1.551646959000e-02 
  1.522785361312e-02 
  1.551086301537e-02 
  1.524206031162e-02 
  1.516810749361e-02 
  1.506566527301e-02 
  1.493633151331e-02 
  1.478390119803e-02 
  1.461356080962e-02 
  1.478497225898e-02 
  1.469586880142e-02 
  1.458684184876e-02 
  1.446015135895e-02 
  1.431723938866e-02 
  1.438717813842e-02 
  1.428649278392e-02 
  1.417189715592e-02 
  1.404626938418e-02 
  1.404034895114e-02 
  1.392619935977e-02 
  1.380143739591e-02 
  1.371859987622e-02 
  1.359254468403e-02 
  1.340727254962e-02 
  1.375096135700e-02 
  1.404806923374e-02 
  1.442073765818e-02 
  1.490528873436e-02 
  1.554183282929e-02 
  1.638614074989e-02 
  1.385911852324e-02 
  1.418669974463e-02 
  1.461811892057e-02 
  1.520059655087e-02 
  1.598672314255e-02 
  1.394632479889e-02 
  1.431663461186e-02 
  1.482795729625e-02 
  1.554306402177e-02 
  1.400898764318e-02 
  1.443589290898e-02 
  1.505826389964e-02 
  1.403689691721e-02 
  1.454165184351e-02 
  1.400575465929e-02 
  1.638612679725e-02 
  1.554189528507e-02 
  1.490530814859e-02 
  1.442079811071e-02 
  1.404809345758e-02 
  1.375109306104e-02 
  1.592780814370e-02 
  1.525222386764e-02 
  1.472003158437e-02 
  1.429625035621e-02 
  1.394964480772e-02 
  1.553714928842e-02 
  1.498025245336e-02 
  1.452334678554e-02 
  1.414245554382e-02 
  1.519397342688e-02 
  1.472272621619e-02 
  1.432087832851e-02 
  1.488859158713e-02 
  1.448002088632e-02 
  1.461318132623e-02 
  1.794951720506e-02 
  1.775937158512e-02 
  1.750618853160e-02 
  1.718985894900e-02 
  1.681244957630e-02 
  1.638753342168e-02 
  1.697772138393e-02 
  1.677942685015e-02 
  1.653293365037e-02 
  1.624545023993e-02 
  1.592767689920e-02 
  1.619666813212e-02 
  1.600442575189e-02 
  1.578258089957e-02 
  1.553736843396e-02 
  1.556582930813e-02 
  1.538891025841e-02 
  1.519379179424e-02 
  1.505047449122e-02 
  1.488855973784e-02 
  1.461225129265e-02 
  1.812818251245e-02 
  1.701505266453e-02 
  1.597209298860e-02 