# vtk DataFile Version 2
NuDG++ 2D simulation
ASCII
DATASET UNSTRUCTURED_GRID

POINTS 7854 double
 -1.656250060000e-01  -2.000000030000e-01  0.0
 -1.725000054000e-01  -1.908888817000e-01  0.0
 -1.793750048000e-01  -1.817777604000e-01  0.0
 -1.862500042000e-01  -1.726666391000e-01  0.0
 -1.931250036000e-01  -1.635555178000e-01  0.0
 -2.000000030000e-01  -1.544443965000e-01  0.0
 -1.725000054000e-01  -2.000000030000e-01  0.0
 -1.793750048000e-01  -1.908888817000e-01  0.0
 -1.862500042000e-01  -1.817777604000e-01  0.0
 -1.931250036000e-01  -1.726666391000e-01  0.0
 -2.000000030000e-01  -1.635555178000e-01  0.0
 -1.793750048000e-01  -2.000000030000e-01  0.0
 -1.862500042000e-01  -1.908888817000e-01  0.0
 -1.931250036000e-01  -1.817777604000e-01  0.0
 -2.000000030000e-01  -1.726666391000e-01  0.0
 -1.862500042000e-01  -2.000000030000e-01  0.0
 -1.931250036000e-01  -1.908888817000e-01  0.0
 -2.000000030000e-01  -1.817777604000e-01  0.0
 -1.931250036000e-01  -2.000000030000e-01  0.0
 -2.000000030000e-01  -1.908888817000e-01  0.0
 -2.000000030000e-01  -2.000000030000e-01  0.0
 -6.428571790000e-02  -1.700000018000e-01  0.0
 -7.080357372400e-02  -1.760000020400e-01  0.0
 -7.732142954800e-02  -1.820000022800e-01  0.0
 -8.383928537200e-02  -1.880000025200e-01  0.0
 -9.035714119600e-02  -1.940000027600e-01  0.0
 -9.687499702000e-02  -2.000000030000e-01  0.0
 -6.392857432000e-02  -1.760000020400e-01  0.0
 -7.044643014400e-02  -1.820000022800e-01  0.0
 -7.696428596800e-02  -1.880000025200e-01  0.0
 -8.348214179200e-02  -1.940000027600e-01  0.0
 -8.999999761600e-02  -2.000000030000e-01  0.0
 -6.357143074000e-02  -1.820000022800e-01  0.0
 -7.008928656400e-02  -1.880000025200e-01  0.0
 -7.660714238800e-02  -1.940000027600e-01  0.0
 -8.312499821200e-02  -2.000000030000e-01  0.0
 -6.321428716000e-02  -1.880000025200e-01  0.0
 -6.973214298400e-02  -1.940000027600e-01  0.0
 -7.624999880800e-02  -2.000000030000e-01  0.0
 -6.285714358000e-02  -1.940000027600e-01  0.0
 -6.937499940400e-02  -2.000000030000e-01  0.0
 -6.250000000000e-02  -2.000000030000e-01  0.0
 -2.000000030000e-01  -1.544443965000e-01  0.0
 -1.900000036000e-01  -1.478412374800e-01  0.0
 -1.800000042000e-01  -1.412380784600e-01  0.0
 -1.700000048000e-01  -1.346349194400e-01  0.0
 -1.600000054000e-01  -1.280317604200e-01  0.0
 -1.500000060000e-01  -1.214286014000e-01  0.0
 -2.000000030000e-01  -1.453332975600e-01  0.0
 -1.900000036000e-01  -1.387301385400e-01  0.0
 -1.800000042000e-01  -1.321269795200e-01  0.0
 -1.700000048000e-01  -1.255238205000e-01  0.0
 -1.600000054000e-01  -1.189206614800e-01  0.0
 -2.000000030000e-01  -1.362221986200e-01  0.0
 -1.900000036000e-01  -1.296190396000e-01  0.0
 -1.800000042000e-01  -1.230158805800e-01  0.0
 -1.700000048000e-01  -1.164127215600e-01  0.0
 -2.000000030000e-01  -1.271110996800e-01  0.0
 -1.900000036000e-01  -1.205079406600e-01  0.0
 -1.800000042000e-01  -1.139047816400e-01  0.0
 -2.000000030000e-01  -1.180000007400e-01  0.0
 -1.900000036000e-01  -1.113968417200e-01  0.0
 -2.000000030000e-01  -1.088889018000e-01  0.0
 -1.500000060000e-01  -1.214286014000e-01  0.0
 -1.600000054000e-01  -1.280317604200e-01  0.0
 -1.700000048000e-01  -1.346349194400e-01  0.0
 -1.800000042000e-01  -1.412380784600e-01  0.0
 -1.900000036000e-01  -1.478412374800e-01  0.0
 -2.000000030000e-01  -1.544443965000e-01  0.0
 -1.500000060000e-01  -1.311428814800e-01  0.0
 -1.600000054000e-01  -1.377460405000e-01  0.0
 -1.700000048000e-01  -1.443491995200e-01  0.0
 -1.800000042000e-01  -1.509523585400e-01  0.0
 -1.900000036000e-01  -1.575555175600e-01  0.0
 -1.500000060000e-01  -1.408571615600e-01  0.0
 -1.600000054000e-01  -1.474603205800e-01  0.0
 -1.700000048000e-01  -1.540634796000e-01  0.0
 -1.800000042000e-01  -1.606666386200e-01  0.0
 -1.500000060000e-01  -1.505714416400e-01  0.0
 -1.600000054000e-01  -1.571746006600e-01  0.0
 -1.700000048000e-01  -1.637777596800e-01  0.0
 -1.500000060000e-01  -1.602857217200e-01  0.0
 -1.600000054000e-01  -1.668888807400e-01  0.0
 -1.500000060000e-01  -1.700000018000e-01  0.0
 -1.500000060000e-01  -7.285714149000e-02  0.0
 -1.600000054000e-01  -8.006349355200e-02  0.0
 -1.700000048000e-01  -8.726984561400e-02  0.0
 -1.800000042000e-01  -9.447619767600e-02  0.0
 -1.900000036000e-01  -1.016825497380e-01  0.0
 -2.000000030000e-01  -1.088889018000e-01  0.0
 -1.500000060000e-01  -8.257143347200e-02  0.0
 -1.600000054000e-01  -8.977778553400e-02  0.0
 -1.700000048000e-01  -9.698413759600e-02  0.0
 -1.800000042000e-01  -1.041904896580e-01  0.0
 -1.900000036000e-01  -1.113968417200e-01  0.0
 -1.500000060000e-01  -9.228572545400e-02  0.0
 -1.600000054000e-01  -9.949207751600e-02  0.0
 -1.700000048000e-01  -1.066984295780e-01  0.0
 -1.800000042000e-01  -1.139047816400e-01  0.0
 -1.500000060000e-01  -1.020000174360e-01  0.0
 -1.600000054000e-01  -1.092063694980e-01  0.0
 -1.700000048000e-01  -1.164127215600e-01  0.0
 -1.500000060000e-01  -1.117143094180e-01  0.0
 -1.600000054000e-01  -1.189206614800e-01  0.0
 -1.500000060000e-01  -1.214286014000e-01  0.0
  1.832975030000e+00  -4.625000060000e-02  0.0
  1.841380024000e+00  -7.700000108000e-02  0.0
  1.849785018000e+00  -1.077500015600e-01  0.0
  1.858190012000e+00  -1.385000020400e-01  0.0
  1.866595006000e+00  -1.692500025200e-01  0.0
  1.875000000000e+00  -2.000000030000e-01  0.0
  1.866380024000e+00  -5.649999976400e-02  0.0
  1.874785018000e+00  -8.725000024400e-02  0.0
  1.883190012000e+00  -1.180000007240e-01  0.0
  1.891595006000e+00  -1.487500012040e-01  0.0
  1.900000000000e+00  -1.795000016840e-01  0.0
  1.899785018000e+00  -6.674999892800e-02  0.0
  1.908190012000e+00  -9.749999940800e-02  0.0
  1.916595006000e+00  -1.282499998880e-01  0.0
  1.925000000000e+00  -1.590000003680e-01  0.0
  1.933190012000e+00  -7.699999809200e-02  0.0
  1.941595006000e+00  -1.077499985720e-01  0.0
  1.950000000000e+00  -1.384999990520e-01  0.0
  1.966595006000e+00  -8.724999725600e-02  0.0
  1.975000000000e+00  -1.179999977360e-01  0.0
  2.000000000000e+00  -9.749999642000e-02  0.0
 -1.500000060000e-01  -1.700000018000e-01  0.0
 -1.444000050800e-01  -1.630000025200e-01  0.0
 -1.388000041600e-01  -1.560000032400e-01  0.0
 -1.332000032400e-01  -1.490000039600e-01  0.0
 -1.276000023200e-01  -1.420000046800e-01  0.0
 -1.220000014000e-01  -1.350000054000e-01  0.0
 -1.500000060000e-01  -1.602857217200e-01  0.0
 -1.444000050800e-01  -1.532857224400e-01  0.0
 -1.388000041600e-01  -1.462857231600e-01  0.0
 -1.332000032400e-01  -1.392857238800e-01  0.0
 -1.276000023200e-01  -1.322857246000e-01  0.0
 -1.500000060000e-01  -1.505714416400e-01  0.0
 -1.444000050800e-01  -1.435714423600e-01  0.0
 -1.388000041600e-01  -1.365714430800e-01  0.0
 -1.332000032400e-01  -1.295714438000e-01  0.0
 -1.500000060000e-01  -1.408571615600e-01  0.0
 -1.444000050800e-01  -1.338571622800e-01  0.0
 -1.388000041600e-01  -1.268571630000e-01  0.0
 -1.500000060000e-01  -1.311428814800e-01  0.0
 -1.444000050800e-01  -1.241428822000e-01  0.0
 -1.500000060000e-01  -1.214286014000e-01  0.0
  2.849999964000e-01  -2.333333530000e-02  0.0
  2.844999968800e-01  -4.666666836000e-02  0.0
  2.839999973600e-01  -7.000000142000e-02  0.0
  2.834999978400e-01  -9.333333448000e-02  0.0
  2.829999983200e-01  -1.166666675400e-01  0.0
  2.824999988000e-01  -1.400000006000e-01  0.0
  2.979999959200e-01  -3.266666830000e-02  0.0
  2.974999964000e-01  -5.600000136000e-02  0.0
  2.969999968800e-01  -7.933333442000e-02  0.0
  2.964999973600e-01  -1.026666674800e-01  0.0
  2.959999978400e-01  -1.260000005400e-01  0.0
  3.109999954400e-01  -4.200000130000e-02  0.0
  3.104999959200e-01  -6.533333436000e-02  0.0
  3.099999964000e-01  -8.866666742000e-02  0.0
  3.094999968800e-01  -1.120000004800e-01  0.0
  3.239999949600e-01  -5.133333430000e-02  0.0
  3.234999954400e-01  -7.466666736000e-02  0.0
  3.229999959200e-01  -9.800000042000e-02  0.0
  3.369999944800e-01  -6.066666730000e-02  0.0
  3.364999949600e-01  -8.400000036000e-02  0.0
  3.499999940000e-01  -7.000000030000e-02  0.0
 -1.071429029000e-01  -1.700000018000e-01  0.0
 -9.857146590000e-02  -1.700000018000e-01  0.0
 -9.000002890000e-02  -1.700000018000e-01  0.0
 -8.142859190000e-02  -1.700000018000e-01  0.0
 -7.285715490000e-02  -1.700000018000e-01  0.0
 -6.428571790000e-02  -1.700000018000e-01  0.0
 -1.037143230360e-01  -1.630000025200e-01  0.0
 -9.514288603600e-02  -1.630000025200e-01  0.0
 -8.657144903600e-02  -1.630000025200e-01  0.0
 -7.800001203600e-02  -1.630000025200e-01  0.0
 -6.942857503600e-02  -1.630000025200e-01  0.0
 -1.002857431720e-01  -1.560000032400e-01  0.0
 -9.171430617200e-02  -1.560000032400e-01  0.0
 -8.314286917200e-02  -1.560000032400e-01  0.0
 -7.457143217200e-02  -1.560000032400e-01  0.0
 -9.685716330800e-02  -1.490000039600e-01  0.0
 -8.828572630800e-02  -1.490000039600e-01  0.0
 -7.971428930800e-02  -1.490000039600e-01  0.0
 -9.342858344400e-02  -1.420000046800e-01  0.0
 -8.485714644400e-02  -1.420000046800e-01  0.0
 -9.000000358000e-02  -1.350000054000e-01  0.0
 -1.312499940000e-01  -2.000000030000e-01  0.0
 -1.264285757800e-01  -1.940000027600e-01  0.0
 -1.216071575600e-01  -1.880000025200e-01  0.0
 -1.167857393400e-01  -1.820000022800e-01  0.0
 -1.119643211200e-01  -1.760000020400e-01  0.0
 -1.071429029000e-01  -1.700000018000e-01  0.0
 -1.349999964000e-01  -1.940000027600e-01  0.0
 -1.301785781800e-01  -1.880000025200e-01  0.0
 -1.253571599600e-01  -1.820000022800e-01  0.0
 -1.205357417400e-01  -1.760000020400e-01  0.0
 -1.157143235200e-01  -1.700000018000e-01  0.0
 -1.387499988000e-01  -1.880000025200e-01  0.0
 -1.339285805800e-01  -1.820000022800e-01  0.0
 -1.291071623600e-01  -1.760000020400e-01  0.0
 -1.242857441400e-01  -1.700000018000e-01  0.0
 -1.425000012000e-01  -1.820000022800e-01  0.0
 -1.376785829800e-01  -1.760000020400e-01  0.0
 -1.328571647600e-01  -1.700000018000e-01  0.0
 -1.462500036000e-01  -1.760000020400e-01  0.0
 -1.414285853800e-01  -1.700000018000e-01  0.0
 -1.500000060000e-01  -1.700000018000e-01  0.0
[...]
POINT_DATA 7854
SCALARS field1 double 1
LOOKUP_TABLE default
  1.036504450663e-06 
  1.057817041391e-02 
  1.185344267927e-02 
  1.192248575520e-02 
  1.308304723335e-02 
  1.532180604420e-02 
 -4.084657278698e-06 
  8.789412979746e-03 
  9.714031677831e-03 
  1.037168253152e-02 
  1.255577135062e-02 
  1.187555795075e-06 
  6.643149968231e-03 
  7.675451195957e-03 
  9.652763964322e-03 
  1.225328113128e-05 
  4.482949087397e-03 
  6.592180802820e-03 
 -2.368907299905e-06 
  3.364778200056e-03 
  3.739120185912e-06 
  2.926403439997e-02 
  2.850038703513e-02 
  2.713100237980e-02 
  2.393016528661e-02 
  1.628187594177e-02 
 -1.086167850859e-06 
  2.899674522063e-02 
  2.763847934417e-02 
  2.442223039133e-02 
  1.664370267710e-02 
 -3.576866801432e-07 
  2.811347551968e-02 
  2.488014604898e-02 
  1.698586189837e-02 
 -4.109917890841e-07 
  2.530796420277e-02 
  1.730574577465e-02 
 -4.027302104124e-07 
  1.760206903154e-02 
 -2.735474304429e-07 
 -5.314808454606e-07 
  1.531774597844e-02 
  1.772028940623e-02 
  2.018474206244e-02 
  2.222024758104e-02 
  2.384071888968e-02 
  2.516271111637e-02 
  1.791907512263e-02 
  2.001271542515e-02 
  2.206105305640e-02 
  2.373837831446e-02 
  2.508654904344e-02 
  2.037136266890e-02 
  2.219093754846e-02 
  2.384602496712e-02 
  2.519613834551e-02 
  2.266803314836e-02 
  2.423126102480e-02 
  2.553837747820e-02 
  2.481263389956e-02 
  2.614150895523e-02 
  2.680342740352e-02 
  2.516334736896e-02 
  2.384068681799e-02 
  2.222046486767e-02 
  2.018432231005e-02 
  1.772110158422e-02 
  1.531885427419e-02 
  2.407929351711e-02 
  2.251415891367e-02 
  2.057559649919e-02 
  1.811610129007e-02 
  1.518319029196e-02 
  2.300859590491e-02 
  2.119954243512e-02 
  1.892424148722e-02 
  1.604259690213e-02 
  2.197896469999e-02 
  1.992803743933e-02 
  1.733092750472e-02 
  2.103103969001e-02 
  1.876077040012e-02 
  2.018851570188e-02 
  2.934480684400e-02 
  2.936482913277e-02 
  2.920030600465e-02 
  2.877369764039e-02 
  2.801377706732e-02 
  2.680488055194e-02 
  2.868057524797e-02 
  2.845648177103e-02 
  2.798840905033e-02 
  2.722672829740e-02 
  2.614086803028e-02 
  2.794748484605e-02 
  2.744850132987e-02 
  2.665156643122e-02 
  2.553830240011e-02 
  2.712962934370e-02 
  2.632897647916e-02 
  2.519558646862e-02 
  2.620234731292e-02 
  2.508634122480e-02 
  2.516270063667e-02 
  2.985999882136e-02 
  2.531614576870e-02 
  2.597653534900e-02 
  2.528528734512e-02 
  2.804380293881e-02 
  7.082300806361e-04 
  2.646118101396e-02 
  2.670053797905e-02 
  2.595567387413e-02 
  2.569050474256e-02 
  2.533380072059e-02 
  2.645235094477e-02 
  2.660619397321e-02 
  2.574203509378e-02 
  2.606139504625e-02 
  2.629257306646e-02 
  2.623159557428e-02 
  2.554497695523e-02 
  2.675310169156e-02 
  2.524638057870e-02 
  2.754807347000e-02 
  2.018800290742e-02 
  2.157948563102e-02 
  2.282144566836e-02 
  2.392689112646e-02 
  2.491982963190e-02 
  2.581057414886e-02 
  2.103063701366e-02 
  2.237882971907e-02 
  2.357222927470e-02 
  2.463075805457e-02 
  2.556123490548e-02 
  2.197943665254e-02 
  2.326352255094e-02 
  2.438568465510e-02 
  2.536575968936e-02 
  2.300919348698e-02 
  2.419802768616e-02 
  2.522476861083e-02 
  2.407949712421e-02 
  2.515250967306e-02 
  2.516362427979e-02 
  2.684779822238e-02 
  2.625866198273e-02 
  2.652502304294e-02 
  2.664892639769e-02 
  2.658676917065e-02 
  2.799968672028e-02 
  2.645503136636e-02 
  2.638453868381e-02 
  2.657214534567e-02 
  2.658584541482e-02 
  2.672454951230e-02 
  2.644136532139e-02 
  2.651961232361e-02 
  2.657765402880e-02 
  2.657138556378e-02 
  2.657208189940e-02 
  2.657792636452e-02 
  2.653792168519e-02 
  2.654442995873e-02 
  2.667316822004e-02 
  2.618618632995e-02 
  2.562984946228e-02 
  2.646584582175e-02 
  2.724071863319e-02 
  2.796617382135e-02 
  2.864187174448e-02 
  2.926738562888e-02 
  2.619416229893e-02 
  2.698034895476e-02 
  2.772118248176e-02 
  2.841984878280e-02 
  2.907563295504e-02 
  2.672324929627e-02 
  2.746788890414e-02 
  2.817876960758e-02 
  2.885936834518e-02 
  2.724583091189e-02 
  2.795553754442e-02 
  2.864699338220e-02 
  2.775557385567e-02 
  2.844212115410e-02 
  2.825478098778e-02 
 -2.524897958420e-06 
  1.388654807229e-02 
  2.055757116868e-02 
  2.347184488802e-02 
  2.481603639274e-02 
  2.563024774774e-02 
  1.314761107268e-02 
  1.957017542355e-02 
  2.246111981065e-02 
  2.385010348561e-02 
  2.473864008476e-02 
  1.845760824236e-02 
  2.133393007557e-02 
  2.279064757884e-02 
  2.376231221073e-02 
  2.006268946588e-02 
  2.161277228288e-02 
  2.269193062712e-02 
  2.029036389122e-02 
  2.150872114670e-02 
  2.018585939575e-02 
  2.580990175971e-02 
  2.629201961446e-02 
  2.677584984161e-02 
  2.726334495448e-02 
  2.775481983477e-02 
  2.825429039228e-02 
  2.630172953923e-02 
  2.672964301262e-02 
  2.716917521704e-02 
  2.762218380734e-02 
  2.808923237858e-02 
  2.675385180387e-02 
  2.713016810308e-02 
  2.752813387086e-02 
  2.795030939201e-02 
  2.715770530294e-02 
  2.748405268596e-02 
  2.784314976180e-02 
  2.750164515362e-02 
  2.778013986270e-02 
  2.776883796159e-02 
  2.825413789724e-02 
  2.775491796659e-02 
  2.726335881335e-02 
  2.677581562270e-02 
  2.629208486575e-02 
  2.580998909435e-02 
  2.775570533343e-02 
  2.724018767418e-02 
  2.671923393803e-02 
  2.619227523677e-02 
  2.565435040581e-02 
  2.724551811057e-02 
  2.670109682354e-02 
  2.614231789218e-02 
  2.556727598242e-02 
  2.672324169786e-02 
  2.614445799881e-02 
  2.554200547679e-02 
  2.619409707387e-02 
  2.557376951965e-02 
  2.563047001933e-02 
  2.988581445537e-02 
  2.929322766505e-02 
  2.881190434122e-02 
  2.841221716081e-02 
  2.807250789366e-02 
  2.776894843011e-02 
  2.972932603988e-02 
  2.914420845954e-02 
  2.863704581940e-02 
  2.818755158646e-02 
  2.778006013414e-02 
  2.945888316995e-02 
  2.887376983681e-02 
  2.834017296123e-02 
  2.784320400843e-02 
  2.910639125997e-02 
  2.851438516188e-02 
  2.795036002019e-02 
  2.869778712226e-02 
  2.808918287474e-02 
  2.825484288153e-02 
  2.581023037547e-02 
  2.630183007312e-02 
  2.675384325913e-02 
  2.715780837904e-02 
  2.750178901386e-02 
  2.776848976344e-02 
  2.556147274644e-02 
  2.610598385793e-02 
  2.659874984514e-02 
  2.703554176006e-02 
  2.740613930558e-02 
  2.536557723625e-02 
  2.596231538751e-02 
  2.650419466646e-02 
  2.698072643354e-02 
  2.522463789280e-02 
  2.588355472726e-02 
  2.648079461166e-02 
  2.515247160375e-02 
  2.588175066392e-02 
  2.516366453148e-02 
  2.988545920086e-02 
  2.972933465870e-02 
  2.945883044256e-02 
  2.910640995893e-02 
  2.869761974343e-02 
  2.825570294082e-02 
  3.036478574852e-02 
  3.010466860685e-02 
  2.976146514024e-02 
  2.936526674728e-02 
  2.893387297525e-02 
  3.082754284410e-02 
  3.046609827013e-02 
  3.005646787583e-02 
  2.962173307094e-02 
  3.125401225632e-02 
  3.080172989959e-02 
  3.033529967943e-02 
  3.163374089212e-02 
  3.110316111573e-02 
  3.195317743266e-02 
  2.563055330676e-02 
  2.557396529847e-02 
  2.554222741066e-02 
  2.556738969029e-02 
  2.565403680496e-02 
  2.581045667945e-02 
  2.473888292616e-02 
  2.469303330996e-02 
  2.469173383915e-02 
  2.476669370639e-02 
  2.492002447217e-02 
  2.376239385325e-02 
  2.374332505840e-02 
  2.378777901504e-02 
  2.392711541618e-02 
  2.269223634379e-02 
  2.271127026458e-02 
  2.282104043824e-02 
  2.150867050923e-02 
  2.157951746344e-02 
  2.018709705956e-02 
 -3.559630399554e-07 
 -4.191562181688e-07 
 -3.425224348504e-07 
 -4.767151339644e-07 
 -3.987130649051e-07 
 -1.305544463464e-06 
  1.920611307240e-02 
  1.916585390457e-02 
  1.903869890890e-02 
  1.883923174886e-02 
  1.859201206641e-02 
  2.763272506726e-02 
  2.755742035075e-02 
  2.735115804016e-02 
  2.704424627735e-02 
  3.072643069101e-02 
  3.060376842690e-02 
  3.034613513922e-02 
  3.170795348839e-02 
  3.153190293815e-02 
  3.200874575052e-02 
  2.934278415700e-02 
  2.868008532665e-02 
  2.794729712479e-02 
  2.712967875865e-02 
  2.620202302310e-02 
  2.516343045814e-02 
  2.867521141526e-02 
  2.811253143202e-02 
  2.746858790938e-02 
  2.672661963562e-02 
  2.588178832798e-02 
  2.820652788512e-02 
  2.772602681612e-02 
  2.714885567137e-02 
  2.648081992981e-02 
  2.790945239828e-02 
  2.749232604398e-02 
  2.698071166740e-02 
  2.776967027622e-02 
  2.740619962816e-02 
  2.776805849815e-02 
  3.446528527880e-02 
  3.360864770985e-02 
  3.232230612021e-02 
  3.113571338470e-02 
  3.014180023538e-02 
  2.934417545784e-02 
  3.470513022315e-02 
  3.330610985554e-02 
  3.197212307856e-02 
  3.084682909293e-02 
  2.988914511978e-02 
  3.413942906289e-02 
  3.267428088710e-02 
  3.139566404955e-02 
  3.029245424230e-02 
  3.325443643961e-02 
  3.183656145814e-02 
  3.058000276375e-02 
  3.218926057155e-02 
  3.080739266210e-02 
  3.102535587394e-02 
  3.446248641378e-02 
  3.323734435982e-02 
  3.185852432155e-02 
  3.032726466761e-02 
  2.864235021056e-02 
  2.680386393159e-02 
  3.360929803615e-02 
  3.242846640914e-02 
  3.109687907103e-02 
  2.962843409177e-02 
  2.801371233754e-02 
  3.232154310056e-02 
  3.125900966343e-02 
  3.007573215360e-02 
  2.877332985123e-02 
  3.113659872259e-02 
  3.022419934167e-02 
  2.920086239266e-02 
  3.014091292645e-02 
  2.936417245684e-02 
  2.934751344811e-02 
  3.446307541367e-02 
  3.470539989853e-02 
  3.413866734299e-02 
  3.325480572654e-02 
  3.218846257956e-02 
  3.102869223114e-02 
  3.553487432537e-02 
  3.558473447731e-02 
  3.477391409109e-02 
  3.369073180679e-02 
  3.246643083052e-02 
  3.645350423051e-02 
  3.631610956479e-02 
  3.529594731358e-02 
  3.403392836957e-02 
  3.721933402991e-02 
  3.691431898199e-02 
  3.570725790533e-02 
  3.783300857198e-02 
  3.736044174015e-02 
  3.829131894084e-02 
  3.102202546511e-02 
  3.080655918880e-02 
  3.057912530799e-02 
  3.029214856526e-02 
  2.988849611871e-02 
  2.934170664093e-02 
  2.978891011980e-02 
  2.970711590275e-02 
  2.960465844745e-02 
  2.944473540606e-02 
  2.917508541158e-02 
  2.863514108151e-02 
  2.869884247732e-02 
  2.874249580872e-02 
  2.872833475692e-02 
  2.753377235344e-02 
  2.777453833388e-02 
  2.799708565118e-02 
  2.648555352668e-02 
  2.695107222408e-02 
  2.549104490502e-02 
  2.466815566357e-02 
  2.615680443738e-02 
  2.751753357089e-02 
  2.877554743099e-02 
  2.993438556389e-02 
  3.102072324049e-02 
  2.457667386039e-02 
  2.611335693384e-02 
  2.747666733751e-02 
  2.869518939342e-02 
  2.978901175178e-02 
  2.462250220198e-02 
  2.616180066545e-02 
  2.748461324828e-02 
  2.863484066828e-02 
  2.480313779971e-02 
  2.629060364054e-02 
  2.753410686970e-02 
  2.510184367801e-02 
  2.648539383563e-02 
  2.549243729110e-02 
  3.102418265257e-02 
  3.114794646482e-02 
  3.122936792519e-02 
  3.126707386679e-02 
  3.128580626897e-02 
  3.130530268575e-02 
  3.246735658051e-02 
  3.267598603737e-02 
  3.278834313266e-02 
  3.283747970392e-02 
  3.281655820120e-02 
  3.403263900851e-02 
  3.427740182518e-02 
  3.442242531461e-02 
  3.446997469613e-02 
  3.570875414930e-02 
  3.600390135691e-02 
  3.616195355355e-02 
  3.735967644504e-02 
  3.768382450591e-02 
  3.829493890838e-02 
  2.934030340070e-02 
  2.882316621779e-02 
  2.836773403492e-02 
  2.798806639282e-02 
  2.770166397805e-02 
  2.756685251793e-02 
  2.917533555024e-02 
  2.853867603475e-02 
  2.796675352747e-02 
  2.746621994952e-02 
  2.706749838233e-02 
  2.872804892239e-02 
  2.796660019969e-02 
  2.724865395996e-02 
  2.658411859769e-02 
  2.799728004975e-02 
  2.707005748913e-02 
  2.614128711975e-02 
  2.695090264201e-02 
  2.577126210945e-02 
  2.549256422835e-02 
  2.786956495274e-02 
  2.680592190033e-02 
  2.653078592796e-02 
  2.653957907418e-02 
  2.688394990621e-02 
  2.788637110956e-02 
  2.645776618755e-02 
  2.666562134429e-02 
  2.666958782299e-02 
  2.681118207202e-02 
  2.695284704133e-02 
  2.647078888952e-02 
  2.627886410284e-02 
  2.621793649350e-02 
  2.577986308625e-02 
  2.644911448127e-02 
  2.654576654372e-02 
  2.629076903287e-02 
  2.357442858217e-02 
  2.629129100957e-02 
  3.512897526407e-04 
  2.421246992724e-02 
  2.531378682535e-02 
  2.612787198346e-02 
  2.674689078417e-02 
  2.721415101945e-02 
  2.756971629632e-02 
  2.537924533436e-02 
  2.621240394905e-02 
  2.682711057538e-02 
  2.728912137332e-02 
  2.762591204367e-02 
  2.662548858330e-02 
  2.717452674925e-02 
  2.757345924211e-02 
  2.786605646148e-02 
  2.791073820502e-02 
  2.816874892551e-02 
  2.834385991076e-02 
  2.919122758174e-02 
  2.916250077083e-02 
  3.042470030115e-02 
  2.756648326436e-02 
  2.770171681880e-02 
  2.798797540029e-02 
  2.836783711276e-02 
  2.882307726197e-02 
  2.934078879531e-02 
  2.794694975961e-02 
  2.796605567656e-02 
  2.812048488742e-02 
  2.836489157659e-02 
  2.867534117320e-02 
  2.813534831156e-02 
  2.805414836541e-02 
  2.809103578123e-02 
  2.820600318915e-02 
  2.815512239241e-02 
  2.798456166810e-02 
  2.790953753120e-02 
  2.803027542980e-02 
  2.776946302586e-02 
  2.776867718488e-02 
  1.073555017919e-02 
  1.298428562066e-02 
  1.489752635933e-02 
  1.653596492271e-02 
  1.795606399596e-02 
  1.921255135604e-02 
  1.168709489801e-02 
  1.382440000141e-02 
  1.563207721150e-02 
  1.717388863955e-02 
  1.849897536646e-02 
  1.288638078698e-02 
  1.491581184115e-02 
  1.657792938143e-02 
  1.798360177458e-02 
  1.436462975593e-02 
  1.623295017706e-02 
  1.771326154665e-02 
  1.611299481006e-02 
  1.775094917828e-02 
  1.807296278448e-02 
  1.921102990600e-02 
  2.091981935140e-02 
  2.234931572032e-02 
  2.355398045316e-02 
  2.459076884872e-02 
  2.549521622898e-02 
  1.987662035292e-02 
  2.145404493572e-02 
  2.276164498385e-02 
  2.386810537304e-02 
  2.481868412808e-02 
  2.075835617016e-02 
  2.213825769373e-02 
  2.328969710255e-02 
  2.427144685659e-02 
  2.181040175365e-02 
  2.295127837115e-02 
  2.391573714948e-02 
  2.297808744967e-02 
  2.385947927542e-02 
  2.421361252612e-02 
  2.421110682474e-02 
  2.349911124398e-02 
  2.260719959763e-02 
  2.150354024817e-02 
  2.005853161455e-02 
  1.807338795405e-02 
  2.297736498226e-02 
  2.204066006748e-02 
  2.091252230469e-02 
  1.952056309466e-02 
  1.775098295820e-02 
  2.181027693392e-02 
  2.068519379248e-02 
  1.934104453040e-02 
  1.771313620804e-02 
  2.075801409865e-02 
  1.948793450291e-02 
  1.798343425734e-02 
  1.987601411282e-02 
  1.849909387636e-02 
  1.921238742547e-02 
  1.921091573989e-02 
  1.993568356834e-02 
  2.098866110409e-02 
  2.219091324168e-02 
  2.344228590003e-02 
  2.466975016535e-02 
  2.092001374003e-02 
  2.154792811520e-02 
  2.243975549425e-02 
  2.347847711972e-02 
  2.457660033540e-02 
  2.234951101307e-02 
  2.290868732695e-02 
  2.369848644087e-02 
  2.462239977067e-02 
  2.355375841843e-02 
  2.408049982407e-02 
  2.480325881126e-02 
  2.459098557400e-02 
  2.510213369541e-02 
  2.549375742472e-02 
  2.988541283930e-02 
  3.012475324059e-02 
  3.031668626615e-02 
  3.045145844173e-02 
  3.050597525451e-02 
  3.042531083641e-02 
  2.945370871434e-02 
  2.955045088534e-02 
  2.955600558454e-02 
  2.944037456263e-02 
  2.916240271339e-02 
  2.898441611522e-02 
  2.892316201980e-02 
  2.872501258624e-02 
  2.834402600825e-02 
  2.849830425282e-02 
  2.827204442276e-02 
  2.786591801245e-02 
  2.801635000334e-02 
  2.762599151270e-02 
  2.756923434417e-02 
  2.421469169006e-02 
  2.385923140602e-02 
  2.391600022058e-02 
  2.427130275993e-02 
  2.481883883280e-02 
  2.549454671062e-02 
  2.531353853363e-02 
  2.499311832197e-02 
  2.502426494972e-02 
  2.530670372825e-02 
  2.577183419962e-02 
  2.612818715611e-02 
  2.586971270442e-02 
  2.589578377544e-02 
  2.614187144552e-02 
  2.674678419111e-02 
  2.654626432245e-02 
  2.658466407867e-02 
  2.721435387237e-02 
  2.706784357349e-02 
  2.756826705090e-02 
  2.988611372748e-02 
  2.945346266708e-02 
  2.898423798401e-02 
  2.849793944896e-02 
  2.801605188241e-02 
  2.756746794733e-02 
  2.929319541001e-02 
  2.895888986904e-02 
  2.861186381591e-02 
  2.826810274969e-02 
  2.794681752014e-02 
  2.881201120257e-02 
  2.857539048875e-02 
  2.834610428718e-02 
  2.813556781242e-02 
  2.841213863479e-02 
  2.827324068050e-02 
  2.815517136776e-02 
  2.807263669011e-02 
  2.803058219817e-02 
  2.776854365486e-02 
  1.921155365620e-02 
  1.795638803405e-02 
  1.653586485892e-02 
  1.489723464908e-02 
  1.298436802007e-02 
  1.073609141970e-02 
  1.836714776941e-02 
  1.700167426111e-02 
  1.543834666666e-02 
  1.363809110708e-02 
  1.156469437137e-02 
  1.773195715370e-02 
  1.628645777496e-02 
  1.463955250990e-02 
  1.275502239989e-02 
  1.732767749647e-02 
  1.585427674453e-02 
  1.419054422178e-02 
  1.717111766296e-02 
  1.572463898873e-02 
  1.725462825742e-02 
  3.195366975246e-02 
  3.110305933228e-02 
  3.033545716955e-02 
  2.962159217006e-02 
  2.893393864972e-02 
  2.825535458396e-02 
  3.130306873618e-02 
  3.054281949918e-02 
  2.982589131813e-02 
  2.913101082409e-02 
  2.844240280471e-02 
  3.069978592071e-02 
  3.000227850678e-02 
  2.932217604146e-02 
  2.864705498088e-02 
  3.015881332554e-02 
  2.951095791924e-02 
  2.885960023134e-02 
  2.969521129356e-02 
  2.907585926481e-02 
  2.926894009313e-02 
  2.973661317208e-02 
  2.640053029902e-02 
  2.640671816599e-02 
  2.628008707311e-02 
  2.667877688315e-02 
  2.768718019903e-02 
  2.662680509333e-02 
  2.617752213936e-02 
  2.627063482112e-02 
  2.625670870830e-02 
  2.687374007028e-02 
  2.617450488132e-02 
  2.634669720810e-02 
  2.629323786177e-02 
  2.662418747103e-02 
  2.618854791462e-02 
  2.613349748660e-02 
  2.679008804767e-02 
  2.654704891225e-02 
  2.720207140567e-02 
  2.712780933784e-02 
  3.344878240926e-02 
  3.290976444327e-02 
  3.245657646134e-02 
  3.208859327632e-02 
  3.180281188442e-02 
  3.155074227765e-02 
  3.370973513170e-02 
  3.312663356132e-02 
  3.264301362424e-02 
  3.225848368022e-02 
  3.195961429035e-02 
  3.390775137257e-02 
  3.328785487682e-02 
  3.278387117012e-02 
  3.238631081242e-02 
  3.403537489571e-02 
  3.339167670716e-02 
  3.287673718272e-02 
  3.409336200593e-02 
  3.343890999002e-02 
  3.407992018521e-02 
  3.344831776809e-02 
  3.327163086978e-02 
  3.303081166881e-02 
  3.272684147625e-02 
  3.236398545320e-02 
  3.195271691216e-02 
  3.240837699917e-02 
  3.219665373686e-02 
  3.193930669336e-02 
  3.164013968303e-02 
  3.130312836788e-02 
  3.151267989823e-02 
  3.127113433363e-02 
  3.099912961862e-02 
  3.069958953178e-02 
  3.072018314777e-02 
  3.045178968441e-02 
  3.015888478020e-02 
  2.999193053903e-02 
  2.969497654724e-02 
  2.926972325667e-02 
  2.988487726592e-02 
  3.057301744368e-02 
  3.143899987260e-02 
  3.256319044424e-02 
  3.403946672002e-02 
  3.598790699103e-02 
  3.012462662581e-02 
  3.088424790727e-02 
  3.188657729908e-02 
  3.323778006865e-02 
  3.505865051730e-02 
  3.031641391880e-02 
  3.117632395128e-02 
  3.236370131016e-02 
  3.401724018672e-02 
  3.045131928201e-02 
  3.144396136993e-02 
  3.287861910321e-02 
  3.050602480005e-02 
  3.167001092555e-02 
  3.042437417166e-02 
  3.598796108744e-02 
  3.403954631264e-02 
  3.256324745268e-02 
  3.143906814405e-02 
  3.057307832270e-02 
  2.988487069870e-02 
  3.494934269079e-02 
  3.338276201811e-02 
  3.214748922250e-02 
  3.116494359275e-02 
  3.036446662889e-02 
  3.405604312647e-02 
  3.276527374628e-02 
  3.170717195401e-02 
  3.082713129984e-02 
  3.327393304153e-02 
  3.218343483887e-02 
  3.125350661821e-02 
  3.257985845916e-02 
  3.163312895104e-02 
  3.195208164203e-02 
  3.965533640400e-02 
  3.921318526263e-02 
  3.861656283005e-02 
  3.787003516246e-02 
  3.698445964771e-02 
  3.598985453278e-02 
  3.741423228042e-02 
  3.694673190714e-02 
  3.636843088566e-02 
  3.569534521347e-02 
  3.494917444052e-02 
  3.560808702393e-02 
  3.515462436105e-02 
  3.463305092420e-02 
  3.405634879149e-02 
  3.415070198161e-02 
  3.373325764474e-02 
  3.327370917045e-02 
  3.295966384226e-02 
  3.257986644591e-02 
  3.195095686476e-02 
  3.741716332855e-02 
  3.626443177485e-02 
  3.457640490347e-02 