# vtk DataFile Version 2
NuDG++ 2D simulation
ASCII
DATASET UNSTRUCTURED_GRID

POINTS 7854 double
 -1.656250060000e-01  -2.000000030000e-01  0.0
 -1.725000054000e-01  -1.908888817000e-01  0.0
 -1.793750048000e-01  -1.817777604000e-01  0.0
 -1.862500042000e-01  -1.726666391000e-01  0.0
 -1.931250036000e-01  -1.635555178000e-01  0.0
 -2.000000030000e-01  -1.544443965000e-01  0.0
 -1.725000054000e-01  -2.000000030000e-01  0.0
 -1.793750048000e-01  -1.908888817000e-01  0.0
 -1.862500042000e-01  -1.817777604000e-01  0.0
 -1.931250036000e-01  -1.726666391000e-01  0.0
 -2.000000030000e-01  -1.635555178000e-01  0.0
 -1.793750048000e-01  -2.000000030000e-01  0.0
 -1.862500042000e-01  -1.908888817000e-01  0.0
 -1.931250036000e-01  -1.817777604000e-01  0.0
 -2.000000030000e-01  -1.726666391000e-01  0.0
 -1.862500042000e-01  -2.000000030000e-01  0.0
 -1.931250036000e-01  -1.908888817000e-01  0.0
 -2.000000030000e-01  -1.817777604000e-01  0.0
 -1.931250036000e-01  -2.000000030000e-01  0.0
 -2.000000030000e-01  -1.908888817000e-01  0.0
 -2.000000030000e-01  -2.000000030000e-01  0.0
 -6.428571790000e-02  -1.700000018000e-01  0.0
 -7.080357372400e-02  -1.760000020400e-01  0.0
 -7.732142954800e-02  -1.820000022800e-01  0.0
 -8.383928537200e-02  -1.880000025200e-01  0.0
 -9.035714119600e-02  -1.940000027600e-01  0.0
 -9.687499702000e-02  -2.000000030000e-01  0.0
 -6.392857432000e-02  -1.760000020400e-01  0.0
 -7.044643014400e-02  -1.820000022800e-01  0.0
 -7.696428596800e-02  -1.880000025200e-01  0.0
 -8.348214179200e-02  -1.940000027600e-01  0.0
 -8.999999761600e-02  -2.000000030000e-01  0.0
 -6.357143074000e-02  -1.820000022800e-01  0.0
 -7.008928656400e-02  -1.880000025200e-01  0.0
 -7.660714238800e-02  -1.940000027600e-01  0.0
 -8.312499821200e-02  -2.000000030000e-01  0.0
 -6.321428716000e-02  -1.880000025200e-01  0.0
 -6.973214298400e-02  -1.940000027600e-01  0.0
 -7.624999880800e-02  -2.000000030000e-01  0.0
 -6.285714358000e-02  -1.940000027600e-01  0.0
 -6.937499940400e-02  -2.000000030000e-01  0.0
 -6.250000000000e-02  -2.000000030000e-01  0.0
 -2.000000030000e-01  -1.544443965000e-01  0.0
 -1.900000036000e-01  -1.478412374800e-01  0.0
 -1.800000042000e-01  -1.412380784600e-01  0.0
 -1.700000048000e-01  -1.346349194400e-01  0.0
 -1.600000054000e-01  -1.280317604200e-01  0.0
 -1.500000060000e-01  -1.214286014000e-01  0.0
 -2.000000030000e-01  -1.453332975600e-01  0.0
 -1.900000036000e-01  -1.387301385400e-01  0.0
 -1.800000042000e-01  -1.321269795200e-01  0.0
 -1.700000048000e-01  -1.255238205000e-01  0.0
 -1.600000054000e-01  -1.189206614800e-01  0.0
 -2.000000030000e-01  -1.362221986200e-01  0.0
 -1.900000036000e-01  -1.296190396000e-01  0.0
 -1.800000042000e-01  -1.230158805800e-01  0.0
 -1.700000048000e-01  -1.164127215600e-01  0.0
 -2.000000030000e-01  -1.271110996800e-01  0.0
 -1.900000036000e-01  -1.205079406600e-01  0.0
 -1.800000042000e-01  -1.139047816400e-01  0.0
 -2.000000030000e-01  -1.180000007400e-01  0.0
 -1.900000036000e-01  -1.113968417200e-01  0.0
 -2.000000030000e-01  -1.088889018000e-01  0.0
 -1.500000060000e-01  -1.214286014000e-01  0.0
 -1.600000054000e-01  -1.280317604200e-01  0.0
 -1.700000048000e-01  -1.346349194400e-01  0.0
 -1.800000042000e-01  -1.412380784600e-01  0.0
 -1.900000036000e-01  -1.478412374800e-01  0.0
 -2.000000030000e-01  -1.544443965000e-01  0.0
 -1.500000060000e-01  -1.311428814800e-01  0.0
 -1.600000054000e-01  -1.377460405000e-01  0.0
 -1.700000048000e-01  -1.443491995200e-01  0.0
 -1.800000042000e-01  -1.509523585400e-01  0.0
 -1.900000036000e-01  -1.575555175600e-01  0.0
 -1.500000060000e-01  -1.408571615600e-01  0.0
 -1.600000054000e-01  -1.474603205800e-01  0.0
 -1.700000048000e-01  -1.540634796000e-01  0.0
 -1.800000042000e-01  -1.606666386200e-01  0.0
 -1.500000060000e-01  -1.505714416400e-01  0.0
 -1.600000054000e-01  -1.571746006600e-01  0.0
 -1.700000048000e-01  -1.637777596800e-01  0.0
 -1.500000060000e-01  -1.602857217200e-01  0.0
 -1.600000054000e-01  -1.668888807400e-01  0.0
 -1.500000060000e-01  -1.700000018000e-01  0.0
 -1.500000060000e-01  -7.285714149000e-02  0.0
 -1.600000054000e-01  -8.006349355200e-02  0.0
 -1.700000048000e-01  -8.726984561400e-02  0.0
 -1.800000042000e-01  -9.447619767600e-02  0.0
 -1.900000036000e-01  -1.016825497380e-01  0.0
 -2.000000030000e-01  -1.088889018000e-01  0.0
 -1.500000060000e-01  -8.257143347200e-02  0.0
 -1.600000054000e-01  -8.977778553400e-02  0.0
 -1.700000048000e-01  -9.698413759600e-02  0.0
 -1.800000042000e-01  -1.041904896580e-01  0.0
 -1.900000036000e-01  -1.113968417200e-01  0.0
 -1.500000060000e-01  -9.228572545400e-02  0.0
 -1.600000054000e-01  -9.949207751600e-02  0.0
 -1.700000048000e-01  -1.066984295780e-01  0.0
 -1.800000042000e-01  -1.139047816400e-01  0.0
 -1.500000060000e-01  -1.020000174360e-01  0.0
 -1.600000054000e-01  -1.092063694980e-01  0.0
 -1.700000048000e-01  -1.164127215600e-01  0.0
 -1.500000060000e-01  -1.117143094180e-01  0.0
 -1.600000054000e-01  -1.189206614800e-01  0.0
 -1.500000060000e-01  -1.214286014000e-01  0.0
  1.832975030000e+00  -4.625000060000e-02  0.0
  1.841380024000e+00  -7.700000108000e-02  0.0
  1.849785018000e+00  -1.077500015600e-01  0.0
  1.858190012000e+00  -1.385000020400e-01  0.0
  1.866595006000e+00  -1.692500025200e-01  0.0
  1.875000000000e+00  -2.000000030000e-01  0.0
  1.866380024000e+00  -5.649999976400e-02  0.0
  1.874785018000e+00  -8.725000024400e-02  0.0
  1.883190012000e+00  -1.180000007240e-01  0.0
  1.891595006000e+00  -1.487500012040e-01  0.0
  1.900000000000e+00  -1.795000016840e-01  0.0
  1.899785018000e+00  -6.674999892800e-02  0.0
  1.908190012000e+00  -9.749999940800e-02  0.0
  1.916595006000e+00  -1.282499998880e-01  0.0
  1.925000000000e+00  -1.590000003680e-01  0.0
  1.933190012000e+00  -7.699999809200e-02  0.0
  1.941595006000e+00  -1.077499985720e-01  0.0
  1.950000000000e+00  -1.384999990520e-01  0.0
  1.966595006000e+00  -8.724999725600e-02  0.0
  1.975000000000e+00  -1.179999977360e-01  0.0
  2.000000000000e+00  -9.749999642000e-02  0.0
 -1.500000060000e-01  -1.700000018000e-01  0.0
 -1.444000050800e-01  -1.630000025200e-01  0.0
 -1.388000041600e-01  -1.560000032400e-01  0.0
 -1.332000032400e-01  -1.490000039600e-01  0.0
 -1.276000023200e-01  -1.420000046800e-01  0.0
 -1.220000014000e-01  -1.350000054000e-01  0.0
 -1.500000060000e-01  -1.602857217200e-01  0.0
 -1.444000050800e-01  -1.532857224400e-01  0.0
 -1.388000041600e-01  -1.462857231600e-01  0.0
 -1.332000032400e-01  -1.392857238800e-01  0.0
 -1.276000023200e-01  -1.322857246000e-01  0.0
 -1.500000060000e-01  -1.505714416400e-01  0.0
 -1.444000050800e-01  -1.435714423600e-01  0.0
 -1.388000041600e-01  -1.365714430800e-01  0.0
 -1.332000032400e-01  -1.295714438000e-01  0.0
 -1.500000060000e-01  -1.408571615600e-01  0.0
 -1.444000050800e-01  -1.338571622800e-01  0.0
 -1.388000041600e-01  -1.268571630000e-01  0.0
 -1.500000060000e-01  -1.311428814800e-01  0.0
 -1.444000050800e-01  -1.241428822000e-01  0.0
 -1.500000060000e-01  -1.214286014000e-01  0.0
  2.849999964000e-01  -2.333333530000e-02  0.0
  2.844999968800e-01  -4.666666836000e-02  0.0
  2.839999973600e-01  -7.000000142000e-02  0.0
  2.834999978400e-01  -9.333333448000e-02  0.0
  2.829999983200e-01  -1.166666675400e-01  0.0
  2.824999988000e-01  -1.400000006000e-01  0.0
  2.979999959200e-01  -3.266666830000e-02  0.0
  2.974999964000e-01  -5.600000136000e-02  0.0
  2.969999968800e-01  -7.933333442000e-02  0.0
  2.964999973600e-01  -1.026666674800e-01  0.0
  2.959999978400e-01  -1.260000005400e-01  0.0
  3.109999954400e-01  -4.200000130000e-02  0.0
  3.104999959200e-01  -6.533333436000e-02  0.0
  3.099999964000e-01  -8.866666742000e-02  0.0
  3.094999968800e-01  -1.120000004800e-01  0.0
  3.239999949600e-01  -5.133333430000e-02  0.0
  3.234999954400e-01  -7.466666736000e-02  0.0
  3.229999959200e-01  -9.800000042000e-02  0.0
  3.369999944800e-01  -6.066666730000e-02  0.0
  3.364999949600e-01  -8.400000036000e-02  0.0
  3.499999940000e-01  -7.000000030000e-02  0.0
 -1.071429029000e-01  -1.700000018000e-01  0.0
 -9.857146590000e-02  -1.700000018000e-01  0.0
 -9.000002890000e-02  -1.700000018000e-01  0.0
 -8.142859190000e-02  -1.700000018000e-01  0.0
 -7.285715490000e-02  -1.700000018000e-01  0.0
 -6.428571790000e-02  -1.700000018000e-01  0.0
 -1.037143230360e-01  -1.630000025200e-01  0.0
 -9.514288603600e-02  -1.630000025200e-01  0.0
 -8.657144903600e-02  -1.630000025200e-01  0.0
 -7.800001203600e-02  -1.630000025200e-01  0.0
 -6.942857503600e-02  -1.630000025200e-01  0.0
 -1.002857431720e-01  -1.560000032400e-01  0.0
 -9.171430617200e-02  -1.560000032400e-01  0.0
 -8.314286917200e-02  -1.560000032400e-01  0.0
 -7.457143217200e-02  -1.560000032400e-01  0.0
 -9.685716330800e-02  -1.490000039600e-01  0.0
 -8.828572630800e-02  -1.490000039600e-01  0.0
 -7.971428930800e-02  -1.490000039600e-01  0.0
 -9.342858344400e-02  -1.420000046800e-01  0.0
 -8.485714644400e-02  -1.420000046800e-01  0.0
 -9.000000358000e-02  -1.350000054000e-01  0.0
 -1.312499940000e-01  -2.000000030000e-01  0.0
 -1.264285757800e-01  -1.940000027600e-01  0.0
 -1.216071575600e-01  -1.880000025200e-01  0.0
 -1.167857393400e-01  -1.820000022800e-01  0.0
 -1.119643211200e-01  -1.760000020400e-01  0.0
 -1.071429029000e-01  -1.700000018000e-01  0.0
 -1.349999964000e-01  -1.940000027600e-01  0.0
 -1.301785781800e-01  -1.880000025200e-01  0.0
 -1.253571599600e-01  -1.820000022800e-01  0.0
 -1.205357417400e-01  -1.760000020400e-01  0.0
 -1.157143235200e-01  -1.700000018000e-01  0.0
 -1.387499988000e-01  -1.880000025200e-01  0.0
 -1.339285805800e-01  -1.820000022800e-01  0.0
 -1.291071623600e-01  -1.760000020400e-01  0.0
 -1.242857441400e-01  -1.700000018000e-01  0.0
 -1.425000012000e-01  -1.820000022800e-01  0.0
 -1.376785829800e-01  -1.760000020400e-01  0.0
 -1.328571647600e-01  -1.700000018000e-01  0.0
 -1.462500036000e-01  -1.760000020400e-01  0.0
 -1.414285853800e-01  -1.700000018000e-01  0.0
 -1.500000060000e-01  -1.700000018000e-01  0.0
[...]
POINT_DATA 7854
SCALARS field1 double 1
LOOKUP_TABLE default
  1.640189960467e-05 
  5.026789359097e-03 
  4.819841139709e-03 
  4.708572275650e-03 
  5.151080741215e-03 
  5.948091614265e-03 
 -1.505366349559e-06 
  4.253281185199e-03 
  3.999265917833e-03 
  4.060319523318e-03 
  4.862092028515e-03 
 -2.192920906430e-06 
  3.267809790142e-03 
  3.126681937257e-03 
  3.742130671779e-03 
  2.081032065916e-05 
  2.054068554387e-03 
  2.557762408311e-03 
  4.969032575497e-07 
  1.294575478965e-03 
  6.236303345669e-06 
  1.104777833354e-02 
  1.084614935861e-02 
  1.059539988653e-02 
  1.013174302678e-02 
  8.051887715869e-03 
 -6.913626944186e-07 
  1.102775856551e-02 
  1.078410696211e-02 
  1.032555883723e-02 
  8.226227899320e-03 
 -6.267832037736e-07 
  1.095949339730e-02 
  1.050591368277e-02 
  8.387108156321e-03 
 -5.189605393999e-07 
  1.067415348994e-02 
  8.538081167125e-03 
 -6.423739499594e-07 
  8.676102343617e-03 
 -5.545740205014e-07 
 -6.634235900056e-07 
  5.928873796608e-03 
  6.938283896734e-03 
  7.840834476002e-03 
  8.555231206337e-03 
  9.159488376690e-03 
  9.646392880787e-03 
  6.931450900259e-03 
  7.773934906516e-03 
  8.555004269346e-03 
  9.152302016768e-03 
  9.662403846333e-03 
  7.885700951303e-03 
  8.603790220271e-03 
  9.204028253365e-03 
  9.727447601592e-03 
  8.776384885532e-03 
  9.357009840819e-03 
  9.850762358154e-03 
  9.610250705176e-03 
  1.008691549538e-02 
  1.037338098520e-02 
  9.649424995445e-03 
  9.160444743627e-03 
  8.559070323628e-03 
  7.838208775184e-03 
  6.941519064349e-03 
  5.928406848986e-03 
  9.197221132908e-03 
  8.678169234764e-03 
  7.972640528297e-03 
  7.062721494048e-03 
  5.930814491351e-03 
  8.819450658506e-03 
  8.189987900729e-03 
  7.350633919040e-03 
  6.321446467883e-03 
  8.451885224427e-03 
  7.701608535196e-03 
  6.759455723952e-03 
  8.089068032507e-03 
  7.248904482595e-03 
  7.782698859426e-03 
  1.126734994821e-02 
  1.124836121238e-02 
  1.120005728672e-02 
  1.105829761355e-02 
  1.081819998351e-02 
  1.037568754355e-02 
  1.096065242339e-02 
  1.092599200166e-02 
  1.076370888073e-02 
  1.048657030919e-02 
  1.008646874331e-02 
  1.070376310576e-02 
  1.054845282473e-02 
  1.025058740230e-02 
  9.853677620140e-03 
  1.043829683941e-02 
  1.012948457498e-02 
  9.723912555886e-03 
  1.010955956889e-02 
  9.661459768223e-03 
  9.647472897839e-03 
  1.138139933258e-02 
  9.623340781595e-03 
  1.003622087656e-02 
  9.420359359826e-03 
  1.071569205510e-02 
  9.612531458029e-04 
  1.012948246209e-02 
  1.012236927156e-02 
  9.861976721951e-03 
  9.592504829930e-03 
  9.916107292211e-03 
  1.015139952722e-02 
  1.007999127171e-02 
  9.783521546495e-03 
  9.714498690192e-03 
  1.009201277681e-02 
  9.972718270747e-03 
  9.829568781142e-03 
  1.026348800034e-02 
  9.552438096727e-03 
  1.117467838567e-02 
  7.779267124814e-03 
  8.276975380757e-03 
  8.739960446563e-03 
  9.140712081051e-03 
  9.510122287298e-03 
  9.886555907150e-03 
  8.090377780016e-03 
  8.589585869099e-03 
  9.024610255511e-03 
  9.425260334681e-03 
  9.771080787347e-03 
  8.453320900022e-03 
  8.920040794055e-03 
  9.339051543751e-03 
  9.716485027037e-03 
  8.822066221400e-03 
  9.276528863955e-03 
  9.661169147126e-03 
  9.202150236454e-03 
  9.647669725476e-03 
  9.650704326241e-03 
  1.029019762421e-02 
  1.005070477710e-02 
  1.012453288464e-02 
  1.023634457435e-02 
  1.014120483250e-02 
  1.105047864483e-02 
  1.012374278313e-02 
  1.008879654509e-02 
  1.016549566172e-02 
  1.017801918790e-02 
  1.025000805568e-02 
  1.013170489685e-02 
  1.012815090758e-02 
  1.017396063978e-02 
  1.016885347053e-02 
  1.013331019970e-02 
  1.015171540943e-02 
  1.012085141794e-02 
  1.011525310604e-02 
  1.020261862998e-02 
  9.962380674812e-03 
  9.750079476444e-03 
  1.003933966733e-02 
  1.031940454069e-02 
  1.057951574230e-02 
  1.082007914746e-02 
  1.104876657979e-02 
  9.943233138826e-03 
  1.022387004857e-02 
  1.048522735036e-02 
  1.074034182463e-02 
  1.097795241710e-02 
  1.013768378045e-02 
  1.040356186927e-02 
  1.065697946583e-02 
  1.090343429286e-02 
  1.033079871671e-02 
  1.058491318565e-02 
  1.082999372841e-02 
  1.052378830046e-02 
  1.076974044442e-02 
  1.071449603055e-02 
 -5.390252347299e-06 
  6.909907183486e-03 
  8.753670189494e-03 
  9.216299678660e-03 
  9.498243788019e-03 
  9.755928845357e-03 
  6.555911800052e-03 
  8.345653868588e-03 
  8.839126364781e-03 
  9.156721660503e-03 
  9.413574000709e-03 
  7.883692827690e-03 
  8.412515412859e-03 
  8.769682525419e-03 
  9.061494755248e-03 
  7.920072880988e-03 
  8.337769885215e-03 
  8.672804286038e-03 
  7.842563995245e-03 
  8.243623796320e-03 
  7.772527500589e-03 
  9.877341859109e-03 
  1.002513785386e-02 
  1.019430316415e-02 
  1.036272001877e-02 
  1.053786063715e-02 
  1.071296208075e-02 
  1.003988195996e-02 
  1.018921623975e-02 
  1.034511055062e-02 
  1.050390763477e-02 
  1.066789489211e-02 
  1.021361782032e-02 
  1.034271629683e-02 
  1.048246359985e-02 
  1.063112987644e-02 
  1.037030087983e-02 
  1.048064578448e-02 
  1.060336243619e-02 
  1.049944605130e-02 
  1.059695919306e-02 
  1.060742738101e-02 
  1.071354748091e-02 
  1.053773784282e-02 
  1.036302217572e-02 
  1.019401799197e-02 
  1.002531394312e-02 
  9.877276652025e-03 
  1.052321692315e-02 
  1.034237288364e-02 
  1.015673398819e-02 
  9.971767040973e-03 
  9.774320567923e-03 
  1.033022221465e-02 
  1.014000021376e-02 
  9.940859393930e-03 
  9.734274872468e-03 
  1.013730569915e-02 
  9.933044734484e-03 
  9.716808358634e-03 
  9.942527648984e-03 
  9.720139913242e-03 
  9.751943549422e-03 
  1.134406533796e-02 
  1.113693325858e-02 
  1.097003253598e-02 
  1.083361210216e-02 
  1.071561670897e-02 
  1.060711427690e-02 
  1.127799105472e-02 
  1.107494826889e-02 
  1.089773730883e-02 
  1.074042554098e-02 
  1.059685606272e-02 
  1.117426184362e-02 
  1.096829403425e-02 
  1.078083690381e-02 
  1.060368187730e-02 
  1.103985124210e-02 
  1.083123045594e-02 
  1.063131375601e-02 
  1.088528561666e-02 
  1.066793442749e-02 
  1.071410813180e-02 
  9.880286887214e-03 
  1.004047018603e-02 
  1.021392178606e-02 
  1.037102654206e-02 
  1.049920142894e-02 
  1.060751296138e-02 
  9.772903706189e-03 
  9.982811592960e-03 
  1.016598542695e-02 
  1.032961764180e-02 
  1.047389557996e-02 
  9.714926595036e-03 
  9.934369535974e-03 
  1.014137853712e-02 
  1.031606443575e-02 
  9.662700707257e-03 
  9.913467668022e-03 
  1.014539048691e-02 
  9.647493336939e-03 
  9.927223924669e-03 
  9.653380771795e-03 
  1.134388781817e-02 
  1.127821393482e-02 
  1.117421692141e-02 
  1.103986415641e-02 
  1.088493685123e-02 
  1.071540556101e-02 
  1.150449424002e-02 
  1.140424649232e-02 
  1.127332463534e-02 
  1.112346800532e-02 
  1.096152932857e-02 
  1.166003182012e-02 
  1.152469342736e-02 
  1.137108107036e-02 
  1.120762424586e-02 
  1.180476507201e-02 
  1.163723128345e-02 
  1.146192670869e-02 
  1.193391267836e-02 
  1.173655711275e-02 
  1.204366666148e-02 
  9.753807773765e-03 
  9.719658709476e-03 
  9.716862437767e-03 
  9.734548376439e-03 
  9.773219696740e-03 
  9.881544007772e-03 
  9.413503007657e-03 
  9.399787650301e-03 
  9.407387901600e-03 
  9.444493093057e-03 
  9.511372599858e-03 
  9.060664728501e-03 
  9.052576817934e-03 
  9.083316078922e-03 
  9.141452457636e-03 
  8.672961829625e-03 
  8.683985157273e-03 
  8.740093632971e-03 
  8.242648917945e-03 
  8.277673588037e-03 
  7.775628830939e-03 
 -4.186650840642e-07 
 -5.397539054638e-07 
 -5.539155755233e-07 
 -6.652008381644e-07 
 -6.599541859967e-07 
 -1.248264433004e-06 
  9.434407609193e-03 
  9.426677540563e-03 
  9.378662684718e-03 
  9.297746301570e-03 
  9.186947935913e-03 
  1.162735814396e-02 
  1.159635359578e-02 
  1.152809092610e-02 
  1.142399453173e-02 
  1.193640070622e-02 
  1.189795849191e-02 
  1.181940870865e-02 
  1.201385025983e-02 
  1.196330700101e-02 
  1.204539549188e-02 
  1.126459331211e-02 
  1.096357115605e-02 
  1.070456304772e-02 
  1.043692394121e-02 
  1.010572540273e-02 
  9.652226598802e-03 
  1.099585623466e-02 
  1.077871517117e-02 
  1.053555677955e-02 
  1.025676495544e-02 
  9.927826676467e-03 
  1.081631763207e-02 
  1.062834615426e-02 
  1.040505412860e-02 
  1.014538360172e-02 
  1.070979551188e-02 
  1.052576459054e-02 
  1.031516520247e-02 
  1.063103301581e-02 
  1.047420502214e-02 
  1.060686624313e-02 
  1.335168532904e-02 
  1.291271209941e-02 
  1.240193143115e-02 
  1.196372680264e-02 
  1.157166790823e-02 
  1.126169792167e-02 
  1.335088082162e-02 
  1.277050436811e-02 
  1.225875659808e-02 
  1.184766233144e-02 
  1.153177813672e-02 
  1.307625576244e-02 
  1.253136485624e-02 
  1.205027813492e-02 
  1.165969977493e-02 
  1.274143630394e-02 
  1.221729868459e-02 
  1.173045197350e-02 
  1.233525640183e-02 
  1.181373169129e-02 
  1.194716450828e-02 
  1.334505780747e-02 
  1.287138542826e-02 
  1.233685112983e-02 
  1.173998302060e-02 
  1.108574162939e-02 
  1.037577487413e-02 
  1.291348552976e-02 
  1.247701360211e-02 
  1.197764249425e-02 
  1.142595308094e-02 
  1.081996580925e-02 
  1.239803638932e-02 
  1.198589908733e-02 
  1.155440143856e-02 
  1.106017182703e-02 
  1.196853406384e-02 
  1.160392211543e-02 
  1.119868884374e-02 
  1.157047083582e-02 
  1.124647957138e-02 
  1.126950705484e-02 
  1.334553590592e-02 
  1.335384222757e-02 
  1.307664787250e-02 
  1.274174893487e-02 
  1.233335251412e-02 
  1.195288639969e-02 
  1.375583019745e-02 
  1.368777501377e-02 
  1.331427816696e-02 
  1.292147340013e-02 
  1.245634876123e-02 
  1.411277842185e-02 
  1.395672043964e-02 
  1.350282378333e-02 
  1.306255407884e-02 
  1.441221812902e-02 
  1.418326522708e-02 
  1.366768550399e-02 
  1.464982461504e-02 
  1.433976933151e-02 
  1.483031524532e-02 
  1.194164045724e-02 
  1.181392180318e-02 
  1.172972475221e-02 
  1.165723177759e-02 
  1.152620017585e-02 
  1.126234958969e-02 
  1.147274695923e-02 
  1.142982272119e-02 
  1.138024872554e-02 
  1.131804477756e-02 
  1.121427364908e-02 
  1.104382190068e-02 
  1.105717311388e-02 
  1.106194319236e-02 
  1.104697982286e-02 
  1.064293718288e-02 
  1.071197203811e-02 
  1.077001360467e-02 
  1.025923230492e-02 
  1.041023278970e-02 
  9.871590379270e-03 
  9.590644349979e-03 
  1.015682545432e-02 
  1.064463647857e-02 
  1.111042391573e-02 
  1.153164561982e-02 
  1.193980363794e-02 
  9.591814232346e-03 
  1.013830289495e-02 
  1.063419767752e-02 
  1.107317554302e-02 
  1.147296407156e-02 
  9.601813875100e-03 
  1.015467765260e-02 
  1.063216078303e-02 
  1.104346515645e-02 
  9.661350246603e-03 
  1.019855105024e-02 
  1.064301202743e-02 
  9.763127942969e-03 
  1.025862271446e-02 
  9.874541127420e-03 
  1.194148867920e-02 
  1.201581183020e-02 
  1.202268954416e-02 
  1.202103946543e-02 
  1.203549542223e-02 
  1.205729026604e-02 
  1.245834262227e-02 
  1.254892594164e-02 
  1.258469382784e-02 
  1.260647318219e-02 
  1.258375563715e-02 
  1.305765679370e-02 
  1.313324656857e-02 
  1.319099471246e-02 
  1.321286333490e-02 
  1.367194806651e-02 
  1.378401306736e-02 
  1.383883088195e-02 
  1.433783950573e-02 
  1.447034233772e-02 
  1.484136026713e-02 
  1.126214864869e-02 
  1.106533248854e-02 
  1.089020487112e-02 
  1.074352263892e-02 
  1.063228014991e-02 
  1.057154936001e-02 
  1.121385942219e-02 
  1.096507595745e-02 
  1.074886306081e-02 
  1.056235450487e-02 
  1.041000440190e-02 
  1.104653210860e-02 
  1.075981919789e-02 
  1.049274251487e-02 
  1.025336680455e-02 
  1.077104635390e-02 
  1.043717304004e-02 
  1.010681295034e-02 
  1.040971121688e-02 
  9.981992531475e-03 
  9.874638033005e-03 
  1.097090342827e-02 
  1.040210248247e-02 
  1.029239044068e-02 
  1.024841824210e-02 
  1.027569964634e-02 
  1.067740749827e-02 
  1.000219256025e-02 
  1.023875719364e-02 
  1.021558794675e-02 
  1.026362911822e-02 
  1.015612878629e-02 
  1.018215866538e-02 
  1.005069815344e-02 
  1.007298765266e-02 
  9.880486224263e-03 
  1.002895769089e-02 
  1.000105869603e-02 
  1.000279696757e-02 
  9.772227026137e-03 
  1.039722536680e-02 
  5.657145287969e-04 
  9.395414277427e-03 
  9.784815504855e-03 
  1.006940839507e-02 
  1.028624797215e-02 
  1.045090274229e-02 
  1.057414059805e-02 
  9.803070183086e-03 
  1.009363892928e-02 
  1.030929292563e-02 
  1.047148596150e-02 
  1.058940720045e-02 
  1.023703767449e-02 
  1.042616010299e-02 
  1.056569164361e-02 
  1.066835741178e-02 
  1.068279568712e-02 
  1.077029925604e-02 
  1.083096365901e-02 
  1.112662713455e-02 
  1.111466598185e-02 
  1.155372169126e-02 
  1.057089489483e-02 
  1.063238790897e-02 
  1.074337188554e-02 
  1.089015559146e-02 
  1.106489621890e-02 
  1.126312172975e-02 
  1.070536537784e-02 
  1.071873327656e-02 
  1.078689371595e-02 
  1.088066104006e-02 
  1.099608799487e-02 
  1.076206150988e-02 
  1.074772187112e-02 
  1.076878129772e-02 
  1.081587819452e-02 
  1.076296408646e-02 
  1.071848249946e-02 
  1.070820392135e-02 
  1.071671106408e-02 
  1.063057193221e-02 
  1.060675586052e-02 
  4.669681770250e-03 
  5.473078961089e-03 
  6.143098028150e-03 
  6.717557309407e-03 
  7.216704058731e-03 
  7.664825960924e-03 
  5.053454353736e-03 
  5.785667361773e-03 
  6.406714273864e-03 
  6.942737627452e-03 
  7.405514521399e-03 
  5.523780500317e-03 
  6.192165517315e-03 
  6.746635686330e-03 
  7.228084235296e-03 
  6.099968826763e-03 
  6.679235797008e-03 
  7.153494941593e-03 
  6.774717340799e-03 
  7.236469541357e-03 
  7.515027271266e-03 
  7.664574777387e-03 
  8.264692288155e-03 
  8.771693542430e-03 
  9.199178250773e-03 
  9.568484791467e-03 
  9.879239902171e-03 
  7.890476836322e-03 
  8.447518971474e-03 
  8.911366212233e-03 
  9.303764502530e-03 
  9.643638077093e-03 
  8.197275062955e-03 
  8.684068315401e-03 
  9.092555238844e-03 
  9.440461952401e-03 
  8.564620975959e-03 
  8.965899948104e-03 
  9.308624053656e-03 
  8.970254737337e-03 
  9.281191277257e-03 
  9.395986156914e-03 
  9.394453746584e-03 
  9.151440533289e-03 
  8.848548013119e-03 
  8.494022789255e-03 
  8.066869306692e-03 
  7.515072997173e-03 
  8.969479838917e-03 
  8.642153835562e-03 
  8.257671106119e-03 
  7.796802111838e-03 
  7.236521994872e-03 
  8.564362657814e-03 
  8.170096204325e-03 
  7.705548798057e-03 
  7.153397803521e-03 
  8.196876431796e-03 
  7.751730971827e-03 
  7.228027119497e-03 
  7.889982252303e-03 
  7.405564699485e-03 
  7.664865066569e-03 
  7.665182541630e-03 
  7.923907212204e-03 
  8.303223446914e-03 
  8.732240542742e-03 
  9.185061392166e-03 
  9.596048371095e-03 
  8.264896354174e-03 
  8.496082973896e-03 
  8.817759138779e-03 
  9.192820091513e-03 
  9.591399774304e-03 
  8.772002442348e-03 
  8.979148713254e-03 
  9.266631333463e-03 
  9.601969908793e-03 
  9.199080038551e-03 
  9.396711804844e-03 
  9.661572087574e-03 
  9.568848141634e-03 
  9.762967474183e-03 
  9.877549469207e-03 
  1.134360945001e-02 
  1.143275704659e-02 
  1.150436052652e-02 
  1.155598897285e-02 
  1.157930054669e-02 
  1.155414032812e-02 
  1.120025570925e-02 
  1.124008056804e-02 
  1.124623643181e-02 
  1.120855728871e-02 
  1.111460723742e-02 
  1.104540212781e-02 
  1.102836966696e-02 
  1.096247540768e-02 
  1.083106917946e-02 
  1.088597729053e-02 
  1.080829042446e-02 
  1.066824108217e-02 
  1.072551346226e-02 
  1.058948788269e-02 
  1.057373624180e-02 
  9.396968208173e-03 
  9.281056985092e-03 
  9.308907343706e-03 
  9.440218630631e-03 
  9.643853998533e-03 
  9.878125782672e-03 
  9.784792303304e-03 
  9.679898294941e-03 
  9.699594277156e-03 
  9.808626231549e-03 
  9.982677872261e-03 
  1.006961322271e-02 
  9.989289771477e-03 
  1.000751887538e-02 
  1.010705704525e-02 
  1.028610207345e-02 
  1.022720967181e-02 
  1.025335595249e-02 
  1.045113641515e-02 
  1.041017485568e-02 
  1.057298221232e-02 
  1.134374004347e-02 
  1.120012425486e-02 
  1.104534133417e-02 
  1.088598221361e-02 
  1.072539861957e-02 
  1.057206636498e-02 
  1.113702583779e-02 
  1.102961068878e-02 
  1.091748623568e-02 
  1.080571574852e-02 
  1.070489020210e-02 
  1.097002305677e-02 
  1.089792514847e-02 
  1.082765587582e-02 
  1.076238585106e-02 
  1.083369614010e-02 
  1.079462478652e-02 
  1.076305899489e-02 
  1.071579842577e-02 
  1.071632253169e-02 
  1.060673687017e-02 
  7.664653627862e-03 
  7.216837060094e-03 
  6.717595742600e-03 
  6.142854147017e-03 
  5.473255647445e-03 
  4.669569401837e-03 
  7.367817172877e-03 
  6.883546343037e-03 
  6.332056883475e-03 
  5.693710474779e-03 
  4.953880305200e-03 
  7.146868789651e-03 
  6.633786367607e-03 
  6.050671447744e-03 
  5.377695738201e-03 
  7.006711272767e-03 
  6.482799680646e-03 
  5.892518006306e-03 
  6.953208946613e-03 
  6.438896285991e-03 
  6.978528864220e-03 
  1.204409115308e-02 
  1.173639191955e-02 
  1.146209716497e-02 
  1.120749283940e-02 
  1.096144123885e-02 
  1.071558663659e-02 
  1.179649975841e-02 
  1.152695319378e-02 
  1.127003765557e-02 
  1.102018757229e-02 
  1.076995719022e-02 
  1.157513733622e-02 
  1.132351887158e-02 
  1.107834917865e-02 
  1.083051144354e-02 
  1.137316559283e-02 
  1.114045920821e-02 
  1.090364930914e-02 
  1.120345257072e-02 
  1.097872596497e-02 
  1.104860486390e-02 
  1.121611391277e-02 
  1.010624638988e-02 
  1.010797794900e-02 
  1.007943616259e-02 
  1.020144805366e-02 
  1.122087796854e-02 
  9.982032565526e-03 
  9.883378233945e-03 
  9.906566359581e-03 
  9.901801101721e-03 
  9.954841348383e-03 
  9.924675020287e-03 
  9.921290362340e-03 
  9.948065909747e-03 
  9.992477511127e-03 
  9.906484623723e-03 
  9.868370924844e-03 
  9.813126401818e-03 
  9.892047690190e-03 
  1.011271125496e-02 
  9.957162189528e-03 
  1.255210607815e-02 
  1.235249862517e-02 
  1.218271199191e-02 
  1.205240570454e-02 
  1.195327600996e-02 
  1.186357152011e-02 
  1.264061220404e-02 
  1.242758537737e-02 
  1.225010389273e-02 
  1.211334535505e-02 
  1.200789624707e-02 
  1.270894937883e-02 
  1.248344722190e-02 
  1.230009279631e-02 
  1.215777666265e-02 
  1.275284170898e-02 
  1.252076802056e-02 
  1.233088599231e-02 
  1.277350565008e-02 
  1.253718025231e-02 
  1.276974595449e-02 
  1.255123794792e-02 
  1.249112534854e-02 
  1.240754346799e-02 
  1.230205909078e-02 
  1.217886655579e-02 
  1.204303440257e-02 
  1.217667077913e-02 
  1.210471646414e-02 
  1.201600618776e-02 
  1.191319950579e-02 
  1.179662918430e-02 
  1.184983144916e-02 
  1.176915521807e-02 
  1.167636335317e-02 
  1.157485609024e-02 
  1.156752431857e-02 
  1.147464054708e-02 
  1.137319721206e-02 
  1.130514537972e-02 
  1.120320856963e-02 
  1.104895182112e-02 
  1.134342394126e-02 
  1.158568948314e-02 
  1.188886368649e-02 
  1.228318270226e-02 
  1.280128495099e-02 
  1.348879309262e-02 
  1.143267755609e-02 
  1.169920841493e-02 
  1.205012492146e-02 
  1.252420100684e-02 
  1.316360946180e-02 
  1.150421593869e-02 
  1.180545856702e-02 
  1.222150517886e-02 
  1.280319410359e-02 
  1.155587779067e-02 
  1.190303547223e-02 
  1.240954301318e-02 
  1.157924836080e-02 
  1.198974269259e-02 
  1.155361452338e-02 
  1.348878395683e-02 
  1.280133899963e-02 
  1.228319336791e-02 
  1.188892281457e-02 
  1.158569846465e-02 
  1.134359676088e-02 
  1.311446134520e-02 
  1.256452647320e-02 
  1.213148620035e-02 
  1.178652480630e-02 
  1.150414794093e-02 
  1.279579719705e-02 
  1.234237618693e-02 
  1.197029318049e-02 
  1.165981315354e-02 
  1.251561337074e-02 
  1.213151472311e-02 
  1.180429695558e-02 
  1.226566571760e-02 
  1.193345643859e-02 
  1.204256373131e-02 
  1.475919054868e-02 
  1.460434500280e-02 
  1.439870924397e-02 
  1.414197778184e-02 
  1.383542863749e-02 
  1.349010601076e-02 
  1.396760965789e-02 
  1.380659188243e-02 
  1.360624416723e-02 
  1.337246937645e-02 
  1.311432323862e-02 
  1.333114052455e-02 
  1.317523817887e-02 
  1.299504695567e-02 
  1.279599103904e-02 
  1.281713566326e-02 
  1.267370479623e-02 
  1.251543309863e-02 
  1.239736290256e-02 
  1.226561334034e-02 
  1.204167152009e-02 
  1.502171795470e-02 
  1.403398389587e-02 
  1.315942482228e-02 