# vtk DataFile Version 2
NuDG++ 2D simulation
ASCII
DATASET UNSTRUCTURED_GRID

POINTS 7854 double
 -1.656250060000e-01  -2.000000030000e-01  0.0
 -1.725000054000e-01  -1.908888817000e-01  0.0
 -1.793750048000e-01  -1.817777604000e-01  0.0
 -1.862500042000e-01  -1.726666391000e-01  0.0
 -1.931250036000e-01  -1.635555178000e-01  0.0
 -2.000000030000e-01  -1.544443965000e-01  0.0
 -1.725000054000e-01  -2.000000030000e-01  0.0
 -1.793750048000e-01  -1.908888817000e-01  0.0
 -1.862500042000e-01  -1.817777604000e-01  0.0
 -1.931250036000e-01  -1.726666391000e-01  0.0
 -2.000000030000e-01  -1.635555178000e-01  0.0
 -1.793750048000e-01  -2.000000030000e-01  0.0
 -1.862500042000e-01  -1.908888817000e-01  0.0
 -1.931250036000e-01  -1.817777604000e-01  0.0
 -2.000000030000e-01  -1.726666391000e-01  0.0
 -1.862500042000e-01  -2.000000030000e-01  0.0
 -1.931250036000e-01  -1.908888817000e-01  0.0
 -2.000000030000e-01  -1.817777604000e-01  0.0
 -1.931250036000e-01  -2.000000030000e-01  0.0
 -2.000000030000e-01  -1.908888817000e-01  0.0
 -2.000000030000e-01  -2.000000030000e-01  0.0
 -6.428571790000e-02  -1.700000018000e-01  0.0
 -7.080357372400e-02  -1.760000020400e-01  0.0
 -7.732142954800e-02  -1.820000022800e-01  0.0
 -8.383928537200e-02  -1.880000025200e-01  0.0
 -9.035714119600e-02  -1.940000027600e-01  0.0
 -9.687499702000e-02  -2.000000030000e-01  0.0
 -6.392857432000e-02  -1.760000020400e-01  0.0
 -7.044643014400e-02  -1.820000022800e-01  0.0
 -7.696428596800e-02  -1.880000025200e-01  0.0
 -8.348214179200e-02  -1.940000027600e-01  0.0
 -8.999999761600e-02  -2.000000030000e-01  0.0
 -6.357143074000e-02  -1.820000022800e-01  0.0
 -7.008928656400e-02  -1.880000025200e-01  0.0
 -7.660714238800e-02  -1.940000027600e-01  0.0
 -8.312499821200e-02  -2.000000030000e-01  0.0
 -6.321428716000e-02  -1.880000025200e-01  0.0
 -6.973214298400e-02  -1.940000027600e-01  0.0
 -7.624999880800e-02  -2.000000030000e-01  0.0
 -6.285714358000e-02  -1.940000027600e-01  0.0
 -6.937499940400e-02  -2.000000030000e-01  0.0
 -6.250000000000e-02  -2.000000030000e-01  0.0
 -2.000000030000e-01  -1.544443965000e-01  0.0
 -1.900000036000e-01  -1.478412374800e-01  0.0
 -1.800000042000e-01  -1.412380784600e-01  0.0
 -1.700000048000e-01  -1.346349194400e-01  0.0
 -1.600000054000e-01  -1.280317604200e-01  0.0
 -1.500000060000e-01  -1.214286014000e-01  0.0
 -2.000000030000e-01  -1.453332975600e-01  0.0
 -1.900000036000e-01  -1.387301385400e-01  0.0
 -1.800000042000e-01  -1.321269795200e-01  0.0
 -1.700000048000e-01  -1.255238205000e-01  0.0
 -1.600000054000e-01  -1.189206614800e-01  0.0
 -2.000000030000e-01  -1.362221986200e-01  0.0
 -1.900000036000e-01  -1.296190396000e-01  0.0
 -1.800000042000e-01  -1.230158805800e-01  0.0
 -1.700000048000e-01  -1.164127215600e-01  0.0
 -2.000000030000e-01  -1.271110996800e-01  0.0
 -1.900000036000e-01  -1.205079406600e-01  0.0
 -1.800000042000e-01  -1.139047816400e-01  0.0
 -2.000000030000e-01  -1.180000007400e-01  0.0
 -1.900000036000e-01  -1.113968417200e-01  0.0
 -2.000000030000e-01  -1.088889018000e-01  0.0
 -1.500000060000e-01  -1.214286014000e-01  0.0
 -1.600000054000e-01  -1.280317604200e-01  0.0
 -1.700000048000e-01  -1.346349194400e-01  0.0
 -1.800000042000e-01  -1.412380784600e-01  0.0
 -1.900000036000e-01  -1.478412374800e-01  0.0
 -2.000000030000e-01  -1.544443965000e-01  0.0
 -1.500000060000e-01  -1.311428814800e-01  0.0
 -1.600000054000e-01  -1.377460405000e-01  0.0
 -1.700000048000e-01  -1.443491995200e-01  0.0
 -1.800000042000e-01  -1.509523585400e-01  0.0
 -1.900000036000e-01  -1.575555175600e-01  0.0
 -1.500000060000e-01  -1.408571615600e-01  0.0
 -1.600000054000e-01  -1.474603205800e-01  0.0
 -1.700000048000e-01  -1.540634796000e-01  0.0
 -1.800000042000e-01  -1.606666386200e-01  0.0
 -1.500000060000e-01  -1.505714416400e-01  0.0
 -1.600000054000e-01  -1.571746006600e-01  0.0
 -1.700000048000e-01  -1.637777596800e-01  0.0
 -1.500000060000e-01  -1.602857217200e-01  0.0
 -1.600000054000e-01  -1.668888807400e-01  0.0
 -1.500000060000e-01  -1.700000018000e-01  0.0
 -1.500000060000e-01  -7.285714149000e-02  0.0
 -1.600000054000e-01  -8.006349355200e-02  0.0
 -1.700000048000e-01  -8.726984561400e-02  0.0
 -1.800000042000e-01  -9.447619767600e-02  0.0
 -1.900000036000e-01  -1.016825497380e-01  0.0
 -2.000000030000e-01  -1.088889018000e-01  0.0
 -1.500000060000e-01  -8.257143347200e-02  0.0
 -1.600000054000e-01  -8.977778553400e-02  0.0
 -1.700000048000e-01  -9.698413759600e-02  0.0
 -1.800000042000e-01  -1.041904896580e-01  0.0
 -1.900000036000e-01  -1.113968417200e-01  0.0
 -1.500000060000e-01  -9.228572545400e-02  0.0
 -1.600000054000e-01  -9.949207751600e-02  0.0
 -1.700000048000e-01  -1.066984295780e-01  0.0
 -1.800000042000e-01  -1.139047816400e-01  0.0
 -1.500000060000e-01  -1.020000174360e-01  0.0
 -1.600000054000e-01  -1.092063694980e-01  0.0
 -1.700000048000e-01  -1.164127215600e-01  0.0
 -1.500000060000e-01  -1.117143094180e-01  0.0
 -1.600000054000e-01  -1.189206614800e-01  0.0
 -1.500000060000e-01  -1.214286014000e-01  0.0
  1.832975030000e+00  -4.625000060000e-02  0.0
  1.841380024000e+00  -7.700000108000e-02  0.0
  1.849785018000e+00  -1.077500015600e-01  0.0
  1.858190012000e+00  -1.385000020400e-01  0.0
  1.866595006000e+00  -1.692500025200e-01  0.0
  1.875000000000e+00  -2.000000030000e-01  0.0
  1.866380024000e+00  -5.649999976400e-02  0.0
  1.874785018000e+00  -8.725000024400e-02  0.0
  1.883190012000e+00  -1.180000007240e-01  0.0
  1.891595006000e+00  -1.487500012040e-01  0.0
  1.900000000000e+00  -1.795000016840e-01  0.0
  1.899785018000e+00  -6.674999892800e-02  0.0
  1.908190012000e+00  -9.749999940800e-02  0.0
  1.916595006000e+00  -1.282499998880e-01  0.0
  1.925000000000e+00  -1.590000003680e-01  0.0
  1.933190012000e+00  -7.699999809200e-02  0.0
  1.941595006000e+00  -1.077499985720e-01  0.0
  1.950000000000e+00  -1.384999990520e-01  0.0
  1.966595006000e+00  -8.724999725600e-02  0.0
  1.975000000000e+00  -1.179999977360e-01  0.0
  2.000000000000e+00  -9.749999642000e-02  0.0
 -1.500000060000e-01  -1.700000018000e-01  0.0
 -1.444000050800e-01  -1.630000025200e-01  0.0
 -1.388000041600e-01  -1.560000032400e-01  0.0
 -1.332000032400e-01  -1.490000039600e-01  0.0
 -1.276000023200e-01  -1.420000046800e-01  0.0
 -1.220000014000e-01  -1.350000054000e-01  0.0
 -1.500000060000e-01  -1.602857217200e-01  0.0
 -1.444000050800e-01  -1.532857224400e-01  0.0
 -1.388000041600e-01  -1.462857231600e-01  0.0
 -1.332000032400e-01  -1.392857238800e-01  0.0
 -1.276000023200e-01  -1.322857246000e-01  0.0
 -1.500000060000e-01  -1.505714416400e-01  0.0
 -1.444000050800e-01  -1.435714423600e-01  0.0
 -1.388000041600e-01  -1.365714430800e-01  0.0
 -1.332000032400e-01  -1.295714438000e-01  0.0
 -1.500000060000e-01  -1.408571615600e-01  0.0
 -1.444000050800e-01  -1.338571622800e-01  0.0
 -1.388000041600e-01  -1.268571630000e-01  0.0
 -1.500000060000e-01  -1.311428814800e-01  0.0
 -1.444000050800e-01  -1.241428822000e-01  0.0
 -1.500000060000e-01  -1.214286014000e-01  0.0
  2.849999964000e-01  -2.333333530000e-02  0.0
  2.844999968800e-01  -4.666666836000e-02  0.0
  2.839999973600e-01  -7.000000142000e-02  0.0
  2.834999978400e-01  -9.333333448000e-02  0.0
  2.829999983200e-01  -1.166666675400e-01  0.0
  2.824999988000e-01  -1.400000006000e-01  0.0
  2.979999959200e-01  -3.266666830000e-02  0.0
  2.974999964000e-01  -5.600000136000e-02  0.0
  2.969999968800e-01  -7.933333442000e-02  0.0
  2.964999973600e-01  -1.026666674800e-01  0.0
  2.959999978400e-01  -1.260000005400e-01  0.0
  3.109999954400e-01  -4.200000130000e-02  0.0
  3.104999959200e-01  -6.533333436000e-02  0.0
  3.099999964000e-01  -8.866666742000e-02  0.0
  3.094999968800e-01  -1.120000004800e-01  0.0
  3.239999949600e-01  -5.133333430000e-02  0.0
  3.234999954400e-01  -7.466666736000e-02  0.0
  3.229999959200e-01  -9.800000042000e-02  0.0
  3.369999944800e-01  -6.066666730000e-02  0.0
  3.364999949600e-01  -8.400000036000e-02  0.0
  3.499999940000e-01  -7.000000030000e-02  0.0
 -1.071429029000e-01  -1.700000018000e-01  0.0
 -9.857146590000e-02  -1.700000018000e-01  0.0
 -9.000002890000e-02  -1.700000018000e-01  0.0
 -8.142859190000e-02  -1.700000018000e-01  0.0
 -7.285715490000e-02  -1.700000018000e-01  0.0
 -6.428571790000e-02  -1.700000018000e-01  0.0
 -1.037143230360e-01  -1.630000025200e-01  0.0
 -9.514288603600e-02  -1.630000025200e-01  0.0
 -8.657144903600e-02  -1.630000025200e-01  0.0
 -7.800001203600e-02  -1.630000025200e-01  0.0
 -6.942857503600e-02  -1.630000025200e-01  0.0
 -1.002857431720e-01  -1.560000032400e-01  0.0
 -9.171430617200e-02  -1.560000032400e-01  0.0
 -8.314286917200e-02  -1.560000032400e-01  0.0
 -7.457143217200e-02  -1.560000032400e-01  0.0
 -9.685716330800e-02  -1.490000039600e-01  0.0
 -8.828572630800e-02  -1.490000039600e-01  0.0
 -7.971428930800e-02  -1.490000039600e-01  0.0
 -9.342858344400e-02  -1.420000046800e-01  0.0
 -8.485714644400e-02  -1.420000046800e-01  0.0
 -9.000000358000e-02  -1.350000054000e-01  0.0
 -1.312499940000e-01  -2.000000030000e-01  0.0
 -1.264285757800e-01  -1.940000027600e-01  0.0
 -1.216071575600e-01  -1.880000025200e-01  0.0
 -1.167857393400e-01  -1.820000022800e-01  0.0
 -1.119643211200e-01  -1.760000020400e-01  0.0
 -1.071429029000e-01  -1.700000018000e-01  0.0
 -1.349999964000e-01  -1.940000027600e-01  0.0
 -1.301785781800e-01  -1.880000025200e-01  0.0
 -1.253571599600e-01  -1.820000022800e-01  0.0
 -1.205357417400e-01  -1.760000020400e-01  0.0
 -1.157143235200e-01  -1.700000018000e-01  0.0
 -1.387499988000e-01  -1.880000025200e-01  0.0
 -1.339285805800e-01  -1.820000022800e-01  0.0
 -1.291071623600e-01  -1.760000020400e-01  0.0
 -1.242857441400e-01  -1.700000018000e-01  0.0
 -1.425000012000e-01  -1.820000022800e-01  0.0
 -1.376785829800e-01  -1.760000020400e-01  0.0
 -1.328571647600e-01  -1.700000018000e-01  0.0
 -1.462500036000e-01  -1.760000020400e-01  0.0
 -1.414285853800e-01  -1.700000018000e-01  0.0
 -1.500000060000e-01  -1.700000018000e-01  0.0
[...]
POINT_DATA 7854
SCALARS field1 double 1
LOOKUP_TABLE default
 -4.867677496064e-06 
  1.590382300858e-02 
  1.959167690297e-02 
  2.073937965857e-02 
  2.320504274037e-02 
  2.741373720387e-02 
 -2.994759542361e-06 
  1.310774661064e-02 
  1.616175640668e-02 
  1.831811252763e-02 
  2.247553615087e-02 
  2.177742722535e-06 
  1.005016522452e-02 
  1.319726472519e-02 
  1.727224277044e-02 
  6.358757455135e-06 
  7.310721611686e-03 
  1.179197060271e-02 
 -3.099950625121e-06 
  6.029058259678e-03 
  2.093874190954e-06 
  5.306036583126e-02 
  5.071444360939e-02 
  4.653689401292e-02 
  3.868817116521e-02 
  2.437789379639e-02 
 -4.730637851450e-07 
  5.164012837814e-02 
  4.745352351122e-02 
  3.951871814170e-02 
  2.494548006727e-02 
 -1.828828547930e-07 
  4.831025477722e-02 
  4.029572986854e-02 
  2.548095277951e-02 
 -2.089188663149e-07 
  4.102131558978e-02 
  2.598245859654e-02 
 -2.047057475210e-07 
  2.644834330470e-02 
 -1.002095258185e-07 
 -3.148827751447e-07 
  2.741604665762e-02 
  3.153615210960e-02 
  3.592321592642e-02 
  3.974154739109e-02 
  4.282456702966e-02 
  4.531289878855e-02 
  3.207618536538e-02 
  3.571639716598e-02 
  3.938260786338e-02 
  4.254369006983e-02 
  4.507377646929e-02 
  3.646219020532e-02 
  3.966460200629e-02 
  4.269448909042e-02 
  4.522655584536e-02 
  4.057360422529e-02 
  4.338035998064e-02 
  4.581850250618e-02 
  4.441067051310e-02 
  4.684411291199e-02 
  4.797612438222e-02 
  4.531162664716e-02 
  4.282476377353e-02 
  3.974034499496e-02 
  3.592386801832e-02 
  3.153546738978e-02 
  2.741825088613e-02 
  4.336185633650e-02 
  4.036559676867e-02 
  3.665851000737e-02 
  3.210115242475e-02 
  2.690765437448e-02 
  4.137471324455e-02 
  3.790579271051e-02 
  3.358315247389e-02 
  2.823190855487e-02 
  3.945808360966e-02 
  3.554314105242e-02 
  3.058667588868e-02 
  3.767728390019e-02 
  3.326986877596e-02 
  3.584507721404e-02 
  5.296771989430e-02 
  5.304524375423e-02 
  5.266613606292e-02 
  5.176683082268e-02 
  5.024331696196e-02 
  4.797733368288e-02 
  5.182763992953e-02 
  5.134912392630e-02 
  5.040017246346e-02 
  4.891471959098e-02 
  4.684375388153e-02 
  5.045169324194e-02 
  4.944674216678e-02 
  4.791912569947e-02 
  4.581791262469e-02 
  4.888612550931e-02 
  4.735158495155e-02 
  4.522649892452e-02 
  4.715991483439e-02 
  4.507446091582e-02 
  4.531068111352e-02 
  5.454496056232e-02 
  4.383653541054e-02 
  4.573060305968e-02 
  4.698923355239e-02 
  5.028873021247e-02 
  4.225927058803e-04 
  4.800099026205e-02 
  4.792315177213e-02 
  4.697141025753e-02 
  4.745910564796e-02 
  4.392961746704e-02 
  4.784815223395e-02 
  4.821729271635e-02 
  4.680439192230e-02 
  4.784466971134e-02 
  4.784414763323e-02 
  4.740193418681e-02 
  4.600914240547e-02 
  4.824293896596e-02 
  4.591421960686e-02 
  5.005314376049e-02 
  3.584546556568e-02 
  3.871696718800e-02 
  4.111756150904e-02 
  4.321294985948e-02 
  4.507532303025e-02 
  4.671310740202e-02 
  3.767600960458e-02 
  4.024845597235e-02 
  4.250405645317e-02 
  4.448542424931e-02 
  4.622096989290e-02 
  3.945778850303e-02 
  4.188375095118e-02 
  4.399260208441e-02 
  4.581148566918e-02 
  4.137442965349e-02 
  4.360817924074e-02 
  4.551508208347e-02 
  4.336030205513e-02 
  4.533790476882e-02 
  4.531136989198e-02 
  4.883419077389e-02 
  4.732575276085e-02 
  4.799839671114e-02 
  4.811844952528e-02 
  4.816918633256e-02 
  4.980239309599e-02 
  4.774339771118e-02 
  4.778239079871e-02 
  4.807769019034e-02 
  4.800106224084e-02 
  4.819941886879e-02 
  4.786261608802e-02 
  4.802193028864e-02 
  4.808939677922e-02 
  4.795093378264e-02 
  4.834364805068e-02 
  4.808035611091e-02 
  4.804809902890e-02 
  4.830769879273e-02 
  4.817349788156e-02 
  4.781106527258e-02 
  4.613841720492e-02 
  4.772287307394e-02 
  4.919288424846e-02 
  5.057159852470e-02 
  5.185882236293e-02 
  5.306266586824e-02 
  4.754490171900e-02 
  4.905096875105e-02 
  5.047408291733e-02 
  5.181619406697e-02 
  5.307830108931e-02 
  4.862565419060e-02 
  5.005949198241e-02 
  5.143245141739e-02 
  5.274653116487e-02 
  4.961504001365e-02 
  5.098660350463e-02 
  5.232466281015e-02 
  5.056500077556e-02 
  5.189465987098e-02 
  5.149084578678e-02 
  8.807432135982e-07 
  2.066492099981e-02 
  3.302961399782e-02 
  3.999822727294e-02 
  4.386313000306e-02 
  4.613894867280e-02 
  1.952448938026e-02 
  3.138223811936e-02 
  3.819774889148e-02 
  4.207683348738e-02 
  4.445420112673e-02 
  2.952695288461e-02 
  3.619556972880e-02 
  4.011703308024e-02 
  4.261032236677e-02 
  3.393976500596e-02 
  3.793719835175e-02 
  4.058869106357e-02 
  3.548337133667e-02 
  3.834864574475e-02 
  3.584541183919e-02 
  4.671654002329e-02 
  4.766551027638e-02 
  4.860944439661e-02 
  4.956093598654e-02 
  5.051723930287e-02 
  5.149021383546e-02 
  4.762676407444e-02 
  4.846489505032e-02 
  4.932445619341e-02 
  5.020973016534e-02 
  5.112186277188e-02 
  4.845489081993e-02 
  4.919557849703e-02 
  4.997575506144e-02 
  5.080209386234e-02 
  4.918988733878e-02 
  4.983599996932e-02 
  5.054291578595e-02 
  4.981111953570e-02 
  5.036476150027e-02 
  5.028601966164e-02 
  5.148996663291e-02 
  5.051740943878e-02 
  4.956090231070e-02 
  4.860954617421e-02 
  4.766553115199e-02 
  4.671685959756e-02 
  5.056551782543e-02 
  4.956510720302e-02 
  4.855496185609e-02 
  4.753288211304e-02 
  4.649441009183e-02 
  4.961493929499e-02 
  4.856243983852e-02 
  4.748379803971e-02 
  4.637501574015e-02 
  4.862596852662e-02 
  4.751081818705e-02 
  4.635200468968e-02 
  4.754506976459e-02 
  4.635893309683e-02 
  4.613932092375e-02 
  5.442580493814e-02 
  5.327392505188e-02 
  5.233127479529e-02 
  5.154640988591e-02 
  5.087881633024e-02 
  5.028611318235e-02 
  5.416697233150e-02 
  5.302528698560e-02 
  5.203601348578e-02 
  5.115956023120e-02 
  5.036469029597e-02 
  5.368317039881e-02 
  5.254560314111e-02 
  5.150788724124e-02 
  5.054288018442e-02 
  5.304382382550e-02 
  5.189498579799e-02 
  5.080204181959e-02 
  5.229831772007e-02 
  5.112173594657e-02 
  5.149063923173e-02 
  4.671540754544e-02 
  4.762680827611e-02 
  4.845482727906e-02 
  4.918983720716e-02 
  4.981127951806e-02 
  5.028571839535e-02 
  4.622050685012e-02 
  4.721493923110e-02 
  4.812203932240e-02 
  4.892140509003e-02 
  4.959277951038e-02 
  4.581181012098e-02 
  4.690730889191e-02 
  4.790047012857e-02 
  4.877402285770e-02 
  4.551435358291e-02 
  4.671673201882e-02 
  4.780493261739e-02 
  4.533794713885e-02 
  4.665766485296e-02 
  4.531020134076e-02 
  5.442534481360e-02 
  5.416697038463e-02 
  5.368313158425e-02 
  5.304387140923e-02 
  5.229814849948e-02 
  5.149159141636e-02 
  5.538957490307e-02 
  5.492454138717e-02 
  5.430102296708e-02 
  5.357544720040e-02 
  5.278547926340e-02 
  5.631648009001e-02 
  5.565529726143e-02 
  5.490223580256e-02 
  5.410145737272e-02 
  5.717251358120e-02 
  5.633552781180e-02 
  5.547130461876e-02 
  5.793754670760e-02 
  5.694847176779e-02 
  5.859182199894e-02 
  4.613928472300e-02 
  4.635932121997e-02 
  4.635228488426e-02 
  4.637505627907e-02 
  4.649445114158e-02 
  4.671545510038e-02 
  4.445444998971e-02 
  4.467468176715e-02 
  4.472056099773e-02 
  4.483311050021e-02 
  4.507500184929e-02 
  4.261045435085e-02 
  4.285923950360e-02 
  4.298165862748e-02 
  4.321309130464e-02 
  4.058888185536e-02 
  4.088316013162e-02 
  4.111698194869e-02 
  3.834881269247e-02 
  3.871664776486e-02 
  3.584536048341e-02 
 -8.107784841625e-09 
 -1.813295354842e-07 
 -1.099677355130e-07 
 -2.194265563587e-07 
 -1.719283419129e-07 
 -7.675720648046e-07 
  2.892633561608e-02 
  2.884150858692e-02 
  2.860789339420e-02 
  2.825830891532e-02 
  2.783098968867e-02 
  4.492811254097e-02 
  4.476073182086e-02 
  4.436489100090e-02 
  4.379887119911e-02 
  5.298539259150e-02 
  5.272787428256e-02 
  5.221464364732e-02 
  5.669315014972e-02 
  5.633431393587e-02 
  5.828517023249e-02 
  5.296693065951e-02 
  5.182628271925e-02 
  5.045139540606e-02 
  4.888663221488e-02 
  4.716018306116e-02 
  4.531028863742e-02 
  5.179377898358e-02 
  5.077892839123e-02 
  4.956972179550e-02 
  4.818650022786e-02 
  4.665754547341e-02 
  5.094690071297e-02 
  5.007472564641e-02 
  4.901844278732e-02 
  4.780508205279e-02 
  5.042005883496e-02 
  4.968725354907e-02 
  4.877420600737e-02 
  5.021423846577e-02 
  4.959278900414e-02 
  5.028540573181e-02 
  6.168147002397e-02 
  6.042676233847e-02 
  5.834302655974e-02 
  5.623980440112e-02 
  5.442893838665e-02 
  5.296898529335e-02 
  6.241462172029e-02 
  6.015449549864e-02 
  5.780087828704e-02 
  5.569951057158e-02 
  5.390936951164e-02 
  6.169813014916e-02 
  5.911049043606e-02 
  5.674386208370e-02 
  5.466808957105e-02 
  6.019475224881e-02 
  5.758692022711e-02 
  5.525322241712e-02 
  5.825323319546e-02 
  5.568402030040e-02 
  5.598766931063e-02 
  6.168235230737e-02 
  5.948815056424e-02 
  5.702152069176e-02 
  5.428156200475e-02 
  5.126638280839e-02 
  4.797606050746e-02 
  6.042668227327e-02 
  5.827369579001e-02 
  5.585690914309e-02 
  5.318139030150e-02 
  5.024310884002e-02 
  5.834405005454e-02 
  5.639087683872e-02 
  5.419125682869e-02 
  5.176620184702e-02 
  5.623891575194e-02 
  5.456190099404e-02 
  5.266738956664e-02 
  5.442845455329e-02 
  5.304549324869e-02 
  5.296924787497e-02 
  6.168203911403e-02 
  6.241378121265e-02 
  6.169772921506e-02 
  6.019499372282e-02 
  5.825378521733e-02 
  5.598675444090e-02 
  6.360197132674e-02 
  6.401411470068e-02 
  6.289882933641e-02 
  6.100126498199e-02 
  5.872525815286e-02 
  6.524640055721e-02 
  6.535727692755e-02 
  6.387380360560e-02 
  6.162268152236e-02 
  6.661591889414e-02 
  6.643733308946e-02 
  6.461620202859e-02 
  6.771250877503e-02 
  6.726073479334e-02 
  6.853418813945e-02 
  5.598909827116e-02 
  5.568312802879e-02 
  5.525310282412e-02 
  5.466890601178e-02 
  5.391053576307e-02 
  5.296649912184e-02 
  5.370189640833e-02 
  5.360058327552e-02 
  5.342044699226e-02 
  5.311221037499e-02 
  5.263548491208e-02 
  5.153148448822e-02 
  5.169445720376e-02 
  5.180745579864e-02 
  5.180288283164e-02 
  4.945571823588e-02 
  4.996048177610e-02 
  5.042829504255e-02 
  4.747606777201e-02 
  4.841390195625e-02 
  4.562038791345e-02 
  4.398385107474e-02 
  4.679652295224e-02 
  4.938675370855e-02 
  5.175908027616e-02 
  5.394918415423e-02 
  5.598937372223e-02 
  4.378380029698e-02 
  4.671780220600e-02 
  4.930831403405e-02 
  5.162138396123e-02 
  5.370172967436e-02 
  4.387685128461e-02 
  4.681503002238e-02 
  4.933679645638e-02 
  5.153140559563e-02 
  4.423666646074e-02 
  4.707634351048e-02 
  4.945586383859e-02 
  4.483121328980e-02 
  4.747611843320e-02 
  4.562032916943e-02 
  5.598929371660e-02 
  5.619834994861e-02 
  5.636322505279e-02 
  5.646873353280e-02 
  5.651886006220e-02 
  5.651224979504e-02 
  5.872491626672e-02 
  5.908902826525e-02 
  5.931716384347e-02 
  5.941423119737e-02 
  5.939248176008e-02 
  6.162404742331e-02 
  6.209911592790e-02 
  6.237101570447e-02 
  6.245006448521e-02 
  6.461516444571e-02 
  6.515962015307e-02 
  6.545686369097e-02 
  6.726125150048e-02 
  6.784138476069e-02 
  6.853162514860e-02 
  5.296499238933e-02 
  5.202534697294e-02 
  5.119792729817e-02 
  5.050885717185e-02 
  4.999221102183e-02 
  4.975666104972e-02 
  5.263584287012e-02 
  5.147969665792e-02 
  5.043016662276e-02 
  4.950022598832e-02 
  4.875972723645e-02 
  5.180252962141e-02 
  5.039588729915e-02 
  4.905025969599e-02 
  4.779101625662e-02 
  5.042804069434e-02 
  4.867704114664e-02 
  4.690591919332e-02 
  4.841385156338e-02 
  4.616596925209e-02 
  4.562058823638e-02 
  5.085422790022e-02 
  4.847262177073e-02 
  4.754469461159e-02 
  4.775656394826e-02 
  4.897629645597e-02 
  4.957941632169e-02 
  4.800045012448e-02 
  4.803848914675e-02 
  4.807026766459e-02 
  4.901203074737e-02 
  5.063739001356e-02 
  4.789016993794e-02 
  4.761498236329e-02 
  4.739883317542e-02 
  4.706609105913e-02 
  4.695422420384e-02 
  4.773410992009e-02 
  4.655105409243e-02 
  3.867068083242e-02 
  4.446944967684e-02 
  1.921273924674e-04 
  4.314442985319e-02 
  4.534674316938e-02 
  4.695153429684e-02 
  4.816170101913e-02 
  4.907263594631e-02 
  4.976126766920e-02 
  4.537978834592e-02 
  4.709536057193e-02 
  4.832197359267e-02 
  4.923049044815e-02 
  4.989185834121e-02 
  4.778010190918e-02 
  4.896942153860e-02 
  4.978461528962e-02 
  5.036779482611e-02 
  5.026920559648e-02 
  5.090934588148e-02 
  5.129567719633e-02 
  5.276161470577e-02 
  5.285144340484e-02 
  5.517621422244e-02 
  4.975638151212e-02 
  4.999224670519e-02 
  5.050876587652e-02 
  5.119816006839e-02 
  5.202531513632e-02 
  5.296550001447e-02 
  5.051753646922e-02 
  5.052137120754e-02 
  5.077943094317e-02 
  5.121770869758e-02 
  5.179356561796e-02 
  5.090470485023e-02 
  5.070777861527e-02 
  5.074445004653e-02 
  5.094635941617e-02 
  5.096466279179e-02 
  5.059565510825e-02 
  5.042037931939e-02 
  5.074998093592e-02 
  5.021406542486e-02 
  5.028600584625e-02 
  1.754373478536e-02 
  2.164780645271e-02 
  2.524117834982e-02 
  2.836912846863e-02 
  3.110190840910e-02 
  3.351468228139e-02 
  1.913542858278e-02 
  2.311585183485e-02 
  2.656754307848e-02 
  2.954901420697e-02 
  3.212606537559e-02 
  2.116449296711e-02 
  2.502979017811e-02 
  2.828004429537e-02 
  3.105110931535e-02 
  2.367894245431e-02 
  2.735324946038e-02 
  3.034446429986e-02 
  2.667398787573e-02 
  3.005034827214e-02 
  3.007321948072e-02 
  3.351151425717e-02 
  3.681797007676e-02 
  3.957054170101e-02 
  4.188947599602e-02 
  4.387943427258e-02 
  4.562166206044e-02 
  3.479497353126e-02 
  3.785363412598e-02 
  4.037897280173e-02 
  4.250983220135e-02 
  4.433434180153e-02 
  3.648348487224e-02 
  3.917956213245e-02 
  4.140959986646e-02 
  4.330110945044e-02 
  3.850157080712e-02 
  4.075474651059e-02 
  4.262961175225e-02 
  4.075225247952e-02 
  4.251633525751e-02 
  4.314607090963e-02 
  4.314252799665e-02 
  4.165357877459e-02 
  3.975507557140e-02 
  3.735301285970e-02 
  3.421930388929e-02 
  3.007401053279e-02 
  4.075141181081e-02 
  3.885515689905e-02 
  3.653805802708e-02 
  3.366315142664e-02 
  3.005037275527e-02 
  3.850152398851e-02 
  3.626810428450e-02 
  3.358575736686e-02 
  3.034431805433e-02 
  3.648319292469e-02 
  3.399513186821e-02 
  3.105082654181e-02 
  3.479426196257e-02 
  3.212626472720e-02 
  3.351424666360e-02 
  3.351031224470e-02 
  3.491566747352e-02 
  3.692512413701e-02 
  3.922434627720e-02 
  4.161315637215e-02 
  4.398289987244e-02 
  3.681829780677e-02 
  3.801120432801e-02 
  3.971011224826e-02 
  4.168793528040e-02 
  4.378350317667e-02 
  3.957058934561e-02 
  4.062632775843e-02 
  4.212158707488e-02 
  4.387635899158e-02 
  4.188928468237e-02 
  4.287319750503e-02 
  4.423641428463e-02 
  4.387958875902e-02 
  4.483124686515e-02 
  4.562042174126e-02 
  5.442584782730e-02 
  5.486862208071e-02 
  5.521511532135e-02 
  5.544427640626e-02 
  5.549192644662e-02 
  5.517712438509e-02 
  5.355479401356e-02 
  5.371923845976e-02 
  5.370454676936e-02 
  5.345043897918e-02 
  5.285129283774e-02 
  5.260938794467e-02 
  5.246888955842e-02 
  5.206173921065e-02 
  5.129592562761e-02 
  5.163113071083e-02 
  5.117386733581e-02 
  5.036759050101e-02 
  5.066319923229e-02 
  4.989196889818e-02 
  4.976058895590e-02 
  4.314742162530e-02 
  4.251598684176e-02 
  4.262993163894e-02 
  4.330099251066e-02 
  4.433446542924e-02 
  4.562125385005e-02 
  4.534630211778e-02 
  4.473113744974e-02 
  4.477508760255e-02 
  4.529745386370e-02 
  4.616671383956e-02 
  4.695192816557e-02 
  4.643423163438e-02 
  4.646078817077e-02 
  4.690667560966e-02 
  4.816153261126e-02 
  4.774769523718e-02 
  4.779192414872e-02 
  4.907290329353e-02 
  4.876010914755e-02 
  4.975904529682e-02 
  5.442635468900e-02 
  5.355449421205e-02 
  5.260906446175e-02 
  5.163051202007e-02 
  5.066280481522e-02 
  4.975793200382e-02 
  5.327388395271e-02 
  5.258756422541e-02 
  5.187848124179e-02 
  5.117624325116e-02 
  5.051733663591e-02 
  5.233143042329e-02 
  5.183414685047e-02 
  5.135043041881e-02 
  5.090484469939e-02 
  5.154631157052e-02 
  5.123547946407e-02 
  5.096461167328e-02 
  5.087895632849e-02 
  5.075038707638e-02 
  5.028563762079e-02 
  3.351274393951e-02 
  3.110244765676e-02 
  2.836888994973e-02 
  2.524082435766e-02 
  2.164783662788e-02 
  1.754484927054e-02 
  3.190320397737e-02 
  2.928861760891e-02 
  2.631397733200e-02 
  2.293351546971e-02 
  1.911787312533e-02 
  3.068821277491e-02 
  2.793532437783e-02 
  2.482643049324e-02 
  2.132566863600e-02 
  2.991509770613e-02 
  2.711902043419e-02 
  2.399216835134e-02 
  2.961531561758e-02 
  2.687363663587e-02 
  2.977881218898e-02 
  5.859301143799e-02 
  5.694852504010e-02 
  5.547168017642e-02 
  5.410134636690e-02 
  5.278569248221e-02 
  5.149104145977e-02 
  5.738169188797e-02 
  5.591881503502e-02 
  5.453993257084e-02 
  5.320924319326e-02 
  5.189506777124e-02 
  5.625556686617e-02 
  5.491514606034e-02 
  5.361403453203e-02 
  5.232461904740e-02 
  5.524923032607e-02 
  5.400750149378e-02 
  5.274707264569e-02 
  5.435306141119e-02 
  5.307833843651e-02 
  5.306658859436e-02 
  5.466171135122e-02 
  4.786926119830e-02 
  4.782530450373e-02 
  4.783123182742e-02 
  4.821316013186e-02 
  5.019433598382e-02 
  4.930600375903e-02 
  4.792576818935e-02 
  4.803256347540e-02 
  4.810486327757e-02 
  4.809886509234e-02 
  4.795226060895e-02 
  4.822394650335e-02 
  4.811400347402e-02 
  4.840029725889e-02 
  4.750055435861e-02 
  4.780003021576e-02 
  5.086422473143e-02 
  4.854532828476e-02 
  5.088747189203e-02 
  5.035208085553e-02 
  6.159039204143e-02 
  6.057470841776e-02 
  5.972190716824e-02 
  5.902160338435e-02 
  5.840290131563e-02 
  5.743249919984e-02 
  6.210736629033e-02 
  6.100649516855e-02 
  6.009140519702e-02 
  5.935339056351e-02 
  5.868747075973e-02 
  6.250296073813e-02 
  6.132832021912e-02 
  6.037025148054e-02 
  5.960276653566e-02 
  6.276231098952e-02 
  6.153788296482e-02 
  6.055518585340e-02 
  6.288412105120e-02 
  6.163434278999e-02 
  6.286882224365e-02 
  6.158971909070e-02 
  6.122891759154e-02 
  6.074256547163e-02 
  6.013254640969e-02 
  5.940814572580e-02 
  5.859196557150e-02 
  5.959173693277e-02 
  5.916683864428e-02 
  5.865197678207e-02 
  5.805499876910e-02 
  5.738174777642e-02 
  5.787752645313e-02 
  5.739408829636e-02 
  5.685145854757e-02 
  5.625535636939e-02 
  5.635902116195e-02 
  5.583001000352e-02 
  5.524926433699e-02 
  5.489074302117e-02 
  5.435275624072e-02 
  5.306760758083e-02 
  5.442539018644e-02 
  5.575772050639e-02 
  5.743391017034e-02 
  5.960293228250e-02 
  6.242576248649e-02 
  6.603672556765e-02 
  5.486835049109e-02 
  5.633566304138e-02 
  5.826773765921e-02 
  6.084506438268e-02 
  6.419863278642e-02 
  5.521472046831e-02 
  5.686926216553e-02 
  5.912823380521e-02 
  6.214689413306e-02 
  5.544402705664e-02 
  5.732634660837e-02 
  5.991914029929e-02 
  5.549199817037e-02 
  5.757313199067e-02 
  5.517560071655e-02 
  6.603705054526e-02 
  6.242581273247e-02 
  5.960304960464e-02 
  5.743396247395e-02 
  5.575780364326e-02 
  5.442523725205e-02 
  6.423801979810e-02 
  6.122709179970e-02 
  5.883805285102e-02 
  5.693678629518e-02 
  5.538912637869e-02 
  6.256851375051e-02 
  6.006848662794e-02 
  5.801946966083e-02 
  5.631608876451e-02 
  6.108813954615e-02 
  5.897358061612e-02 
  5.717185665409e-02 
  5.977184075627e-02 
  5.793678450829e-02 
  5.859021835564e-02 
  7.328690370751e-02 
  7.238469154762e-02 
  7.118561667242e-02 
  6.970470886529e-02 
  6.797065195550e-02 
  6.603953653369e-02 
  6.911525895952e-02 
  6.818038989986e-02 
  6.703390152447e-02 
  6.570663057923e-02 
  6.423776455791e-02 
  6.564339658300e-02 
  6.474129762623e-02 
  6.370833983507e-02 
  6.256884456575e-02 
  6.282680132044e-02 
  6.199768678088e-02 
  6.108782795883e-02 
  6.052478047734e-02 
  5.977174758620e-02 
  5.858888566892e-02 
  6.298004418685e-02 
  6.293288788469e-02 
  6.133115364423e-02 