# vtk DataFile Version 2
NuDG++ 2D simulation
ASCII
DATASET UNSTRUCTURED_GRID

POINTS 7854 double
 -1.656250060000e-01  -2.000000030000e-01  0.0
 -1.725000054000e-01  -1.908888817000e-01  0.0
 -1.793750048000e-01  -1.817777604000e-01  0.0
 -1.862500042000e-01  -1.726666391000e-01  0.0
 -1.931250036000e-01  -1.635555178000e-01  0.0
 -2.000000030000e-01  -1.544443965000e-01  0.0
 -1.725000054000e-01  -2.000000030000e-01  0.0
 -1.793750048000e-01  -1.908888817000e-01  0.0
 -1.862500042000e-01  -1.817777604000e-01  0.0
 -1.931250036000e-01  -1.726666391000e-01  0.0
 -2.000000030000e-01  -1.635555178000e-01  0.0
 -1.793750048000e-01  -2.000000030000e-01  0.0
 -1.862500042000e-01  -1.908888817000e-01  0.0
 -1.931250036000e-01  -1.817777604000e-01  0.0
 -2.000000030000e-01  -1.726666391000e-01  0.0
 -1.862500042000e-01  -2.000000030000e-01  0.0
 -1.931250036000e-01  -1.908888817000e-01  0.0
 -2.000000030000e-01  -1.817777604000e-01  0.0
 -1.931250036000e-01  -2.000000030000e-01  0.0
 -2.000000030000e-01  -1.908888817000e-01  0.0
 -2.000000030000e-01  -2.000000030000e-01  0.0
 -6.428571790000e-02  -1.700000018000e-01  0.0
 -7.080357372400e-02  -1.760000020400e-01  0.0
 -7.732142954800e-02  -1.820000022800e-01  0.0
 -8.383928537200e-02  -1.880000025200e-01  0.0
 -9.035714119600e-02  -1.940000027600e-01  0.0
 -9.687499702000e-02  -2.000000030000e-01  0.0
 -6.392857432000e-02  -1.760000020400e-01  0.0
 -7.044643014400e-02  -1.820000022800e-01  0.0
 -7.696428596800e-02  -1.880000025200e-01  0.0
 -8.348214179200e-02  -1.940000027600e-01  0.0
 -8.999999761600e-02  -2.000000030000e-01  0.0
 -6.357143074000e-02  -1.820000022800e-01  0.0
 -7.008928656400e-02  -1.880000025200e-01  0.0
 -7.660714238800e-02  -1.940000027600e-01  0.0
 -8.312499821200e-02  -2.000000030000e-01  0.0
 -6.321428716000e-02  -1.880000025200e-01  0.0
 -6.973214298400e-02  -1.940000027600e-01  0.0
 -7.624999880800e-02  -2.000000030000e-01  0.0
 -6.285714358000e-02  -1.940000027600e-01  0.0
 -6.937499940400e-02  -2.000000030000e-01  0.0
 -6.250000000000e-02  -2.000000030000e-01  0.0
 -2.000000030000e-01  -1.544443965000e-01  0.0
 -1.900000036000e-01  -1.478412374800e-01  0.0
 -1.800000042000e-01  -1.412380784600e-01  0.0
 -1.700000048000e-01  -1.346349194400e-01  0.0
 -1.600000054000e-01  -1.280317604200e-01  0.0
 -1.500000060000e-01  -1.214286014000e-01  0.0
 -2.000000030000e-01  -1.453332975600e-01  0.0
 -1.900000036000e-01  -1.387301385400e-01  0.0
 -1.800000042000e-01  -1.321269795200e-01  0.0
 -1.700000048000e-01  -1.255238205000e-01  0.0
 -1.600000054000e-01  -1.189206614800e-01  0.0
 -2.000000030000e-01  -1.362221986200e-01  0.0
 -1.900000036000e-01  -1.296190396000e-01  0.0
 -1.800000042000e-01  -1.230158805800e-01  0.0
 -1.700000048000e-01  -1.164127215600e-01  0.0
 -2.000000030000e-01  -1.271110996800e-01  0.0
 -1.900000036000e-01  -1.205079406600e-01  0.0
 -1.800000042000e-01  -1.139047816400e-01  0.0
 -2.000000030000e-01  -1.180000007400e-01  0.0
 -1.900000036000e-01  -1.113968417200e-01  0.0
 -2.000000030000e-01  -1.088889018000e-01  0.0
 -1.500000060000e-01  -1.214286014000e-01  0.0
 -1.600000054000e-01  -1.280317604200e-01  0.0
 -1.700000048000e-01  -1.346349194400e-01  0.0
 -1.800000042000e-01  -1.412380784600e-01  0.0
 -1.900000036000e-01  -1.478412374800e-01  0.0
 -2.000000030000e-01  -1.544443965000e-01  0.0
 -1.500000060000e-01  -1.311428814800e-01  0.0
 -1.600000054000e-01  -1.377460405000e-01  0.0
 -1.700000048000e-01  -1.443491995200e-01  0.0
 -1.800000042000e-01  -1.509523585400e-01  0.0
 -1.900000036000e-01  -1.575555175600e-01  0.0
 -1.500000060000e-01  -1.408571615600e-01  0.0
 -1.600000054000e-01  -1.474603205800e-01  0.0
 -1.700000048000e-01  -1.540634796000e-01  0.0
 -1.800000042000e-01  -1.606666386200e-01  0.0
 -1.500000060000e-01  -1.505714416400e-01  0.0
 -1.600000054000e-01  -1.571746006600e-01  0.0
 -1.700000048000e-01  -1.637777596800e-01  0.0
 -1.500000060000e-01  -1.602857217200e-01  0.0
 -1.600000054000e-01  -1.668888807400e-01  0.0
 -1.500000060000e-01  -1.700000018000e-01  0.0
 -1.500000060000e-01  -7.285714149000e-02  0.0
 -1.600000054000e-01  -8.006349355200e-02  0.0
 -1.700000048000e-01  -8.726984561400e-02  0.0
 -1.800000042000e-01  -9.447619767600e-02  0.0
 -1.900000036000e-01  -1.016825497380e-01  0.0
 -2.000000030000e-01  -1.088889018000e-01  0.0
 -1.500000060000e-01  -8.257143347200e-02  0.0
 -1.600000054000e-01  -8.977778553400e-02  0.0
 -1.700000048000e-01  -9.698413759600e-02  0.0
 -1.800000042000e-01  -1.041904896580e-01  0.0
 -1.900000036000e-01  -1.113968417200e-01  0.0
 -1.500000060000e-01  -9.228572545400e-02  0.0
 -1.600000054000e-01  -9.949207751600e-02  0.0
 -1.700000048000e-01  -1.066984295780e-01  0.0
 -1.800000042000e-01  -1.139047816400e-01  0.0
 -1.500000060000e-01  -1.020000174360e-01  0.0
 -1.600000054000e-01  -1.092063694980e-01  0.0
 -1.700000048000e-01  -1.164127215600e-01  0.0
 -1.500000060000e-01  -1.117143094180e-01  0.0
 -1.600000054000e-01  -1.189206614800e-01  0.0
 -1.500000060000e-01  -1.214286014000e-01  0.0
  1.832975030000e+00  -4.625000060000e-02  0.0
  1.841380024000e+00  -7.700000108000e-02  0.0
  1.849785018000e+00  -1.077500015600e-01  0.0
  1.858190012000e+00  -1.385000020400e-01  0.0
  1.866595006000e+00  -1.692500025200e-01  0.0
  1.875000000000e+00  -2.000000030000e-01  0.0
  1.866380024000e+00  -5.649999976400e-02  0.0
  1.874785018000e+00  -8.725000024400e-02  0.0
  1.883190012000e+00  -1.180000007240e-01  0.0
  1.891595006000e+00  -1.487500012040e-01  0.0
  1.900000000000e+00  -1.795000016840e-01  0.0
  1.899785018000e+00  -6.674999892800e-02  0.0
  1.908190012000e+00  -9.749999940800e-02  0.0
  1.916595006000e+00  -1.282499998880e-01  0.0
  1.925000000000e+00  -1.590000003680e-01  0.0
  1.933190012000e+00  -7.699999809200e-02  0.0
  1.941595006000e+00  -1.077499985720e-01  0.0
  1.950000000000e+00  -1.384999990520e-01  0.0
  1.966595006000e+00  -8.724999725600e-02  0.0
  1.975000000000e+00  -1.179999977360e-01  0.0
  2.000000000000e+00  -9.749999642000e-02  0.0
 -1.500000060000e-01  -1.700000018000e-01  0.0
 -1.444000050800e-01  -1.630000025200e-01  0.0
 -1.388000041600e-01  -1.560000032400e-01  0.0
 -1.332000032400e-01  -1.490000039600e-01  0.0
 -1.276000023200e-01  -1.420000046800e-01  0.0
 -1.220000014000e-01  -1.350000054000e-01  0.0
 -1.500000060000e-01  -1.602857217200e-01  0.0
 -1.444000050800e-01  -1.532857224400e-01  0.0
 -1.388000041600e-01  -1.462857231600e-01  0.0
 -1.332000032400e-01  -1.392857238800e-01  0.0
 -1.276000023200e-01  -1.322857246000e-01  0.0
 -1.500000060000e-01  -1.505714416400e-01  0.0
 -1.444000050800e-01  -1.435714423600e-01  0.0
 -1.388000041600e-01  -1.365714430800e-01  0.0
 -1.332000032400e-01  -1.295714438000e-01  0.0
 -1.500000060000e-01  -1.408571615600e-01  0.0
 -1.444000050800e-01  -1.338571622800e-01  0.0
 -1.388000041600e-01  -1.268571630000e-01  0.0
 -1.500000060000e-01  -1.311428814800e-01  0.0
 -1.444000050800e-01  -1.241428822000e-01  0.0
 -1.500000060000e-01  -1.214286014000e-01  0.0
  2.849999964000e-01  -2.333333530000e-02  0.0
  2.844999968800e-01  -4.666666836000e-02  0.0
  2.839999973600e-01  -7.000000142000e-02  0.0
  2.834999978400e-01  -9.333333448000e-02  0.0
  2.829999983200e-01  -1.166666675400e-01  0.0
  2.824999988000e-01  -1.400000006000e-01  0.0
  2.979999959200e-01  -3.266666830000e-02  0.0
  2.974999964000e-01  -5.600000136000e-02  0.0
  2.969999968800e-01  -7.933333442000e-02  0.0
  2.964999973600e-01  -1.026666674800e-01  0.0
  2.959999978400e-01  -1.260000005400e-01  0.0
  3.109999954400e-01  -4.200000130000e-02  0.0
  3.104999959200e-01  -6.533333436000e-02  0.0
  3.099999964000e-01  -8.866666742000e-02  0.0
  3.094999968800e-01  -1.120000004800e-01  0.0
  3.239999949600e-01  -5.133333430000e-02  0.0
  3.234999954400e-01  -7.466666736000e-02  0.0
  3.229999959200e-01  -9.800000042000e-02  0.0
  3.369999944800e-01  -6.066666730000e-02  0.0
  3.364999949600e-01  -8.400000036000e-02  0.0
  3.499999940000e-01  -7.000000030000e-02  0.0
 -1.071429029000e-01  -1.700000018000e-01  0.0
 -9.857146590000e-02  -1.700000018000e-01  0.0
 -9.000002890000e-02  -1.700000018000e-01  0.0
 -8.142859190000e-02  -1.700000018000e-01  0.0
 -7.285715490000e-02  -1.700000018000e-01  0.0
 -6.428571790000e-02  -1.700000018000e-01  0.0
 -1.037143230360e-01  -1.630000025200e-01  0.0
 -9.514288603600e-02  -1.630000025200e-01  0.0
 -8.657144903600e-02  -1.630000025200e-01  0.0
 -7.800001203600e-02  -1.630000025200e-01  0.0
 -6.942857503600e-02  -1.630000025200e-01  0.0
 -1.002857431720e-01  -1.560000032400e-01  0.0
 -9.171430617200e-02  -1.560000032400e-01  0.0
 -8.314286917200e-02  -1.560000032400e-01  0.0
 -7.457143217200e-02  -1.560000032400e-01  0.0
 -9.685716330800e-02  -1.490000039600e-01  0.0
 -8.828572630800e-02  -1.490000039600e-01  0.0
 -7.971428930800e-02  -1.490000039600e-01  0.0
 -9.342858344400e-02  -1.420000046800e-01  0.0
 -8.485714644400e-02  -1.420000046800e-01  0.0
 -9.000000358000e-02  -1.350000054000e-01  0.0
 -1.312499940000e-01  -2.000000030000e-01  0.0
 -1.264285757800e-01  -1.940000027600e-01  0.0
 -1.216071575600e-01  -1.880000025200e-01  0.0
 -1.167857393400e-01  -1.820000022800e-01  0.0
 -1.119643211200e-01  -1.760000020400e-01  0.0
 -1.071429029000e-01  -1.700000018000e-01  0.0
 -1.349999964000e-01  -1.940000027600e-01  0.0
 -1.301785781800e-01  -1.880000025200e-01  0.0
 -1.253571599600e-01  -1.820000022800e-01  0.0
 -1.205357417400e-01  -1.760000020400e-01  0.0
 -1.157143235200e-01  -1.700000018000e-01  0.0
 -1.387499988000e-01  -1.880000025200e-01  0.0
 -1.339285805800e-01  -1.820000022800e-01  0.0
 -1.291071623600e-01  -1.760000020400e-01  0.0
 -1.242857441400e-01  -1.700000018000e-01  0.0
 -1.425000012000e-01  -1.820000022800e-01  0.0
 -1.376785829800e-01  -1.760000020400e-01  0.0
 -1.328571647600e-01  -1.700000018000e-01  0.0
 -1.462500036000e-01  -1.760000020400e-01  0.0
 -1.414285853800e-01  -1.700000018000e-01  0.0
 -1.500000060000e-01  -1.700000018000e-01  0.0
[...]
POINT_DATA 7854
SCALARS field1 double 1
LOOKUP_TABLE default
  2.490231745956e-05 
  2.142557848400e-03 
  1.802517177291e-03 
  1.807030687548e-03 
  1.952809269330e-03 
  2.253110329834e-03 
  7.480550626211e-06 
  1.813427567235e-03 
  1.503021665822e-03 
  1.541260107759e-03 
  1.824973352660e-03 
 -3.805815607893e-06 
  1.438266836839e-03 
  1.195107799243e-03 
  1.407457009999e-03 
  2.384624060873e-05 
  8.975726781221e-04 
  9.605063636044e-04 
  5.316074814068e-06 
  4.755474777810e-04 
  6.128360289165e-06 
  4.146338697306e-03 
  3.996101907384e-03 
  3.922058762752e-03 
  3.820764446081e-03 
  3.558260839576e-03 
  7.262396177791e-06 
  4.052402425762e-03 
  4.007886951651e-03 
  3.863563981055e-03 
  3.654497828589e-03 
  8.674801068272e-07 
  4.073055016944e-03 
  3.921688619158e-03 
  3.722885434286e-03 
  1.929815952295e-06 
  3.971540954780e-03 
  3.788881355228e-03 
  1.407697619178e-06 
  3.844882850094e-03 
  1.011473908423e-06 
  1.872898181991e-06 
  2.223503924647e-03 
  2.648972985556e-03 
  2.940695070486e-03 
  3.180298177722e-03 
  3.422280760521e-03 
  3.586363298399e-03 
  2.593096123983e-03 
  2.921029940063e-03 
  3.210249812094e-03 
  3.423125576387e-03 
  3.606302835315e-03 
  2.956688167984e-03 
  3.230677513636e-03 
  3.440196603187e-03 
  3.654922260246e-03 
  3.292254497877e-03 
  3.494958875773e-03 
  3.696315897873e-03 
  3.608584483939e-03 
  3.764506152170e-03 
  3.887140430058e-03 
  3.589548733801e-03 
  3.423950958763e-03 
  3.185430196831e-03 
  2.937057715554e-03 
  2.652698599167e-03 
  2.224413506691e-03 
  3.398357545295e-03 
  3.253256340064e-03 
  2.982618047468e-03 
  2.657518039745e-03 
  2.206363971601e-03 
  3.276115971273e-03 
  3.064434607328e-03 
  2.753437295342e-03 
  2.392208224848e-03 
  3.154427851348e-03 
  2.879581578261e-03 
  2.550801960443e-03 
  3.019497628099e-03 
  2.712213207910e-03 
  2.924788072525e-03 
  4.202361614534e-03 
  4.195533678740e-03 
  4.166065528142e-03 
  4.116644884665e-03 
  4.058372876590e-03 
  3.889792519407e-03 
  4.069073404990e-03 
  4.086823331606e-03 
  4.020899946306e-03 
  3.918779495943e-03 
  3.764466900153e-03 
  3.983989473077e-03 
  3.935613707571e-03 
  3.825188864214e-03 
  3.700777602628e-03 
  3.903245020651e-03 
  3.772715715889e-03 
  3.649897338085e-03 
  3.795295933846e-03 
  3.605280313678e-03 
  3.588229040243e-03 
  4.180610818935e-03 
  3.574177460879e-03 
  3.732107837947e-03 
  3.520319330354e-03 
  3.920606307654e-03 
  9.480897167127e-04 
  3.795391838376e-03 
  3.746146273237e-03 
  3.673344740994e-03 
  3.570758662581e-03 
  3.682920393486e-03 
  3.787601229849e-03 
  3.730075555413e-03 
  3.650650860333e-03 
  3.585231656766e-03 
  3.780266565683e-03 
  3.710341099646e-03 
  3.690831912601e-03 
  3.810146973445e-03 
  3.546649379958e-03 
  4.286722078714e-03 
  2.920512822356e-03 
  3.086584091855e-03 
  3.250760347984e-03 
  3.392100283824e-03 
  3.531501926509e-03 
  3.701515727559e-03 
  3.020915899190e-03 
  3.199378556290e-03 
  3.361558594024e-03 
  3.511811175181e-03 
  3.630954368005e-03 
  3.155707056203e-03 
  3.325362892519e-03 
  3.476679828835e-03 
  3.624447716675e-03 
  3.279402270590e-03 
  3.463521098006e-03 
  3.597347725801e-03 
  3.405402251684e-03 
  3.607076054137e-03 
  3.591567371469e-03 
  3.821116343469e-03 
  3.755605544050e-03 
  3.765735850686e-03 
  3.821017577746e-03 
  3.776108044120e-03 
  4.183240653695e-03 
  3.755830603471e-03 
  3.766033962694e-03 
  3.787661836458e-03 
  3.790795490880e-03 
  3.821011715832e-03 
  3.776778990387e-03 
  3.772964933048e-03 
  3.794883345579e-03 
  3.796914721457e-03 
  3.773411739981e-03 
  3.779111889212e-03 
  3.768468658439e-03 
  3.779519101982e-03 
  3.792771347917e-03 
  3.729803914055e-03 
  3.633988001138e-03 
  3.708524519953e-03 
  3.806165284457e-03 
  3.899378747415e-03 
  3.987541185642e-03 
  4.128657860343e-03 
  3.682929111366e-03 
  3.784514569016e-03 
  3.873936185767e-03 
  3.970191595399e-03 
  4.056045385909e-03 
  3.748181205617e-03 
  3.846373064325e-03 
  3.936999672363e-03 
  4.023633748907e-03 
  3.816523207006e-03 
  3.912003929831e-03 
  3.994575773622e-03 
  3.890756219061e-03 
  3.979532590813e-03 
  3.968787036750e-03 
  8.629684464112e-06 
  3.065963555566e-03 
  3.310307954409e-03 
  3.414387148718e-03 
  3.517191331352e-03 
  3.650279520899e-03 
  2.915030749133e-03 
  3.157569129204e-03 
  3.266422754580e-03 
  3.425062862852e-03 
  3.480849752843e-03 
  2.985208829614e-03 
  3.110530366612e-03 
  3.281587494841e-03 
  3.359480644286e-03 
  2.938099089416e-03 
  3.127264993748e-03 
  3.218790701295e-03 
  2.918571457059e-03 
  3.062009291253e-03 
  2.914653654704e-03 
  3.690096420284e-03 
  3.721705670716e-03 
  3.783431918233e-03 
  3.841123330425e-03 
  3.903021666065e-03 
  3.964806989242e-03 
  3.730538306289e-03 
  3.782209603254e-03 
  3.838714512902e-03 
  3.893799998444e-03 
  3.952349799432e-03 
  3.797486962170e-03 
  3.840579828357e-03 
  3.889023902151e-03 
  3.942922277831e-03 
  3.855029914761e-03 
  3.892613927509e-03 
  3.933381754632e-03 
  3.899895516604e-03 
  3.936682604065e-03 
  3.945234963550e-03 
  3.966339353350e-03 
  3.902639184647e-03 
  3.841797804767e-03 
  3.783170473839e-03 
  3.721685629371e-03 
  3.690966884829e-03 
  3.890095476180e-03 
  3.830811980203e-03 
  3.763142659575e-03 
  3.701848699659e-03 
  3.622304669561e-03 
  3.816341962361e-03 
  3.757654637276e-03 
  3.685964231063e-03 
  3.610769836080e-03 
  3.748653564822e-03 
  3.677971849729e-03 
  3.602036001515e-03 
  3.682125503293e-03 
  3.607741447043e-03 
  3.638660407602e-03 
  4.200103335450e-03 
  4.128557101009e-03 
  4.069801675709e-03 
  4.023791963455e-03 
  3.981816831700e-03 
  3.944603090256e-03 
  4.173931159441e-03 
  4.104181719291e-03 
  4.041963152913e-03 
  3.987137770851e-03 
  3.936563046749e-03 
  4.135247441918e-03 
  4.063674777251e-03 
  3.997757229562e-03 
  3.933761364752e-03 
  4.086771673800e-03 
  4.012604569044e-03 
  3.943027380287e-03 
  4.030008399411e-03 
  3.952353139305e-03 
  3.966452344325e-03 
  3.692762258176e-03 
  3.731979112407e-03 
  3.798201525039e-03 
  3.856094929446e-03 
  3.899287230896e-03 
  3.945746344767e-03 
  3.633211141115e-03 
  3.715139028054e-03 
  3.782011955167e-03 
  3.841244634817e-03 
  3.897672432418e-03 
  3.621917268771e-03 
  3.696668628563e-03 
  3.775485920071e-03 
  3.833134572567e-03 
  3.600019405262e-03 
  3.690991166247e-03 
  3.777624129187e-03 
  3.606758689483e-03 
  3.694916879884e-03 
  3.596554960985e-03 
  4.199853517757e-03 
  4.174250616286e-03 
  4.135115399701e-03 
  4.086902486919e-03 
  4.029484906522e-03 
  3.968471354730e-03 
  4.256087499296e-03 
  4.217583667506e-03 
  4.169569089982e-03 
  4.113355035046e-03 
  4.055209288089e-03 
  4.307900934877e-03 
  4.258535400731e-03 
  4.202661550085e-03 
  4.143553140549e-03 
  4.358435028679e-03 
  4.297266221067e-03 
  4.233421138006e-03 
  4.403233725611e-03 
  4.330355385144e-03 
  4.446220720508e-03 
  3.643158720013e-03 
  3.607276487014e-03 
  3.602005563332e-03 
  3.610746915326e-03 
  3.621255239233e-03 
  3.695762963829e-03 
  3.479994802746e-03 
  3.489076435926e-03 
  3.490976380802e-03 
  3.508750875348e-03 
  3.533035571596e-03 
  3.357041916843e-03 
  3.360611281359e-03 
  3.375951355399e-03 
  3.392976728092e-03 
  3.218113178820e-03 
  3.231117559330e-03 
  3.251086952943e-03 
  3.059897679924e-03 
  3.087526950814e-03 
  2.916332426270e-03 
  2.288732871759e-06 
  2.256832065359e-06 
  1.666170493392e-06 
  1.971196626968e-06 
  1.360830088848e-06 
  4.865918071787e-06 
  4.154575199037e-03 
  4.177263728938e-03 
  4.159113966761e-03 
  4.128936881794e-03 
  4.049192404930e-03 
  4.359258634698e-03 
  4.317250186409e-03 
  4.295852540730e-03 
  4.291548930582e-03 
  4.411076275241e-03 
  4.405763739441e-03 
  4.379488659998e-03 
  4.404910191748e-03 
  4.402052252432e-03 
  4.519643936933e-03 
  4.201555348045e-03 
  4.073546670991e-03 
  3.985610188404e-03 
  3.901052202570e-03 
  3.788969871042e-03 
  3.595410099532e-03 
  4.108460846606e-03 
  4.025516092052e-03 
  3.927521281322e-03 
  3.816448128235e-03 
  3.695976793518e-03 
  4.035165743588e-03 
  3.959279638481e-03 
  3.879048358291e-03 
  3.778003962212e-03 
  4.000948950399e-03 
  3.919537894627e-03 
  3.831692336491e-03 
  3.959315155996e-03 
  3.898201870215e-03 
  3.944739337786e-03 
  5.014172706655e-03 
  4.807536508354e-03 
  4.636769584004e-03 
  4.477377452449e-03 
  4.312803073726e-03 
  4.196355604693e-03 
  4.990531770818e-03 
  4.763227235422e-03 
  4.572138423372e-03 
  4.413901346827e-03 
  4.329480613256e-03 
  4.866760939003e-03 
  4.677837771566e-03 
  4.496761908073e-03 
  4.360374991984e-03 
  4.745937015913e-03 
  4.566205889355e-03 
  4.373413255827e-03 
  4.600775016596e-03 
  4.406575008446e-03 
  4.465898478118e-03 
  5.008940876757e-03 
  4.829887511193e-03 
  4.629983756077e-03 
  4.401313104852e-03 
  4.153583116970e-03 
  3.890238843555e-03 
  4.807442276555e-03 
  4.655444533147e-03 
  4.476658023574e-03 
  4.275527105248e-03 
  4.061400201163e-03 
  4.632532709999e-03 
  4.467234860554e-03 
  4.314513245297e-03 
  4.120149232914e-03 
  4.483143774468e-03 
  4.333615779019e-03 
  4.163978042522e-03 
  4.312118572593e-03 
  4.193707362829e-03 
  4.202621704152e-03 
  5.007888256006e-03 
  4.994329527102e-03 
  4.868664672029e-03 
  4.746254845832e-03 
  4.599381464831e-03 
  4.468965486192e-03 
  5.156431787444e-03 
  5.112451446968e-03 
  4.963860743908e-03 
  4.826441891186e-03 
  4.641931095051e-03 
  5.292531151714e-03 
  5.209542228220e-03 
  5.029609951869e-03 
  4.883888365543e-03 
  5.407645602734e-03 
  5.289676683591e-03 
  5.096940603944e-03 
  5.495105888569e-03 
  5.343971510869e-03 
  5.568558118071e-03 
  4.463992351107e-03 
  4.407573481633e-03 
  4.373968634402e-03 
  4.357301665418e-03 
  4.321578763538e-03 
  4.200269742197e-03 
  4.292504021719e-03 
  4.277694822452e-03 
  4.252856396148e-03 
  4.219947725598e-03 
  4.183704902497e-03 
  4.133450522907e-03 
  4.135584343582e-03 
  4.137698985451e-03 
  4.127354598128e-03 
  3.992247431736e-03 
  4.008596235345e-03 
  4.019586514833e-03 
  3.850428852705e-03 
  3.900697917720e-03 
  3.696630692336e-03 
  3.598301569737e-03 
  3.817399002357e-03 
  3.989668620840e-03 
  4.162814692972e-03 
  4.310680940231e-03 
  4.463124460600e-03 
  3.616858483551e-03 
  3.808413513980e-03 
  3.988285419729e-03 
  4.144675467212e-03 
  4.292645354448e-03 
  3.616262717169e-03 
  3.813477042641e-03 
  3.985630887122e-03 
  4.133284844666e-03 
  3.637142074248e-03 
  3.828648244068e-03 
  3.991773930275e-03 
  3.674828027773e-03 
  3.849694869375e-03 
  3.699022584797e-03 
  4.459598418609e-03 
  4.508219702359e-03 
  4.495484199532e-03 
  4.491282810411e-03 
  4.504276880256e-03 
  4.514269333640e-03 
  4.643507125027e-03 
  4.682294716083e-03 
  4.698226345008e-03 
  4.708261691180e-03 
  4.691764386875e-03 
  4.878829324091e-03 
  4.900179163465e-03 
  4.923899549214e-03 
  4.928961198823e-03 
  5.100566867914e-03 
  5.138125693589e-03 
  5.155538171738e-03 
  5.342575017652e-03 
  5.394604796963e-03 
  5.578769041373e-03 
  4.200911115322e-03 
  4.129483409145e-03 
  4.061481653695e-03 
  4.007219974948e-03 
  3.966395406709e-03 
  3.935275308487e-03 
  4.182676583601e-03 
  4.092248037882e-03 
  4.013533945767e-03 
  3.944451046686e-03 
  3.888621795628e-03 
  4.126614101192e-03 
  4.021748301716e-03 
  3.921226754202e-03 
  3.838484602608e-03 
  4.020809622994e-03 
  3.904618184308e-03 
  3.788505789483e-03 
  3.900068866637e-03 
  3.743421116958e-03 
  3.699404369362e-03 
  4.280168582750e-03 
  3.931740370715e-03 
  3.882697108297e-03 
  3.851911584977e-03 
  3.845782196296e-03 
  3.941020260867e-03 
  3.660336966307e-03 
  3.820039620795e-03 
  3.802806632212e-03 
  3.831298432917e-03 
  3.775325645571e-03 
  3.824989044723e-03 
  3.760174196401e-03 
  3.766896213385e-03 
  3.703188506778e-03 
  3.692242153726e-03 
  3.691141086701e-03 
  3.688843068610e-03 
  3.728589034757e-03 
  3.848010621218e-03 
  6.376561792320e-04 
  3.523545414069e-03 
  3.665468615801e-03 
  3.763497307123e-03 
  3.839853218010e-03 
  3.899785166692e-03 
  3.938886254951e-03 
  3.668613630919e-03 
  3.770920627560e-03 
  3.847424088999e-03 
  3.904442922369e-03 
  3.946495134570e-03 
  3.820484062089e-03 
  3.886303288635e-03 
  3.935816390240e-03 
  3.971831388458e-03 
  3.975508074240e-03 
  4.006206478139e-03 
  4.027397768723e-03 
  4.129567364367e-03 
  4.125861536919e-03 
  4.277194746077e-03 
  3.934950381216e-03 
  3.966502274961e-03 
  4.007218072103e-03 
  4.061230025364e-03 
  4.129030671161e-03 
  4.201500855693e-03 
  3.989207890852e-03 
  3.993584107762e-03 
  4.021973897351e-03 
  4.056918604828e-03 
  4.108518867879e-03 
  4.003089223867e-03 
  4.004367069720e-03 
  4.010797535443e-03 
  4.034771889990e-03 
  4.001893923297e-03 
  3.990853114569e-03 
  3.998131638374e-03 
  3.989958294881e-03 
  3.958488818076e-03 
  3.944201654943e-03 
  1.869870552494e-03 
  2.154022622325e-03 
  2.389076375421e-03 
  2.591363014209e-03 
  2.766927757068e-03 
  2.926479797364e-03 
  2.010778096923e-03 
  2.262677748217e-03 
  2.480417736324e-03 
  2.669702579622e-03 
  2.832246473326e-03 
  2.176886051596e-03 
  2.405585802971e-03 
  2.599195027822e-03 
  2.768793842410e-03 
  2.382182493600e-03 
  2.576411514541e-03 
  2.741341286443e-03 
  2.622256102851e-03 
  2.771575566774e-03 
  2.881914516370e-03 
  2.926284294707e-03 
  3.137971911823e-03 
  3.316587707567e-03 
  3.468977108938e-03 
  3.601057484760e-03 
  3.702972714545e-03 
  3.003257425614e-03 
  3.200289228647e-03 
  3.364920840445e-03 
  3.503855896379e-03 
  3.625186935376e-03 
  3.110119185944e-03 
  3.282229048795e-03 
  3.427183497516e-03 
  3.549574313514e-03 
  3.239110773888e-03 
  3.379893823628e-03 
  3.501853914863e-03 
  3.380361708566e-03 
  3.490451252043e-03 
  3.523743439014e-03 
  3.522906829823e-03 
  3.441602672043e-03 
  3.333294879628e-03 
  3.207836381376e-03 
  3.061070841307e-03 
  2.881894022521e-03 
  3.379689723685e-03 
  3.262634692497e-03 
  3.128120558223e-03 
  2.965907211323e-03 
  2.771616890747e-03 
  3.238872348806e-03 
  3.098767622513e-03 
  2.935210396429e-03 
  2.741290259285e-03 
  3.109836828833e-03 
  2.953140533945e-03 
  2.768774100775e-03 
  3.002958558112e-03 
  2.832278273569e-03 
  2.926478435392e-03 
  2.926664659533e-03 
  3.019577245348e-03 
  3.155559307525e-03 
  3.307222322143e-03 
  3.471487954126e-03 
  3.604029756719e-03 
  3.138210831591e-03 
  3.221772737121e-03 
  3.337141455162e-03 
  3.470981444561e-03 
  3.616174913323e-03 
  3.316799578213e-03 
  3.393055917711e-03 
  3.496328984124e-03 
  3.616498295352e-03 
  3.469054389832e-03 
  3.540576282588e-03 
  3.637063278361e-03 
  3.601424625328e-03 
  3.674018367710e-03 
  3.701657879915e-03 
  4.199892866337e-03 
  4.233718928949e-03 
  4.259036153111e-03 
  4.278053719617e-03 
  4.287487986405e-03 
  4.277476048335e-03 
  4.152374858025e-03 
  4.167888983301e-03 
  4.170838373063e-03 
  4.157961148817e-03 
  4.125827218262e-03 
  4.101321272736e-03 
  4.095176341235e-03 
  4.073268723542e-03 
  4.027458750147e-03 
  4.048106607538e-03 
  4.020042521992e-03 
  3.971736614196e-03 
  3.994130786463e-03 
  3.946536945197e-03 
  3.938702028393e-03 
  3.524397599807e-03 
  3.490437039528e-03 
  3.502102573906e-03 
  3.549357635155e-03 
  3.625360471320e-03 
  3.702112726830e-03 
  3.665583136570e-03 
  3.629646379194e-03 
  3.639480647093e-03 
  3.680384856908e-03 
  3.744132946256e-03 
  3.763536836334e-03 
  3.739656642008e-03 
  3.747151166386e-03 
  3.788372918662e-03 
  3.839671187191e-03 
  3.822566673418e-03 
  3.838017662164e-03 
  3.900065568519e-03 
  3.888287430894e-03 
  3.937533355075e-03 
  4.199659571425e-03 
  4.152296133238e-03 
  4.101430062255e-03 
  4.048219494935e-03 
  3.994083397599e-03 
  3.936743503127e-03 
  4.128755785459e-03 
  4.093702658493e-03 
  4.056408856855e-03 
  4.019463000829e-03 
  3.988649893484e-03 
  4.069739292990e-03 
  4.048146736104e-03 
  4.026627043631e-03 
  4.003540704296e-03 
  4.024003089296e-03 
  4.011856462829e-03 
  4.001907657057e-03 
  3.982055884967e-03 
  3.989028533062e-03 
  3.944204376185e-03 
  2.926508965872e-03 
  2.766983984253e-03 
  2.591419423934e-03 
  2.388904886611e-03 
  2.154203115196e-03 
  1.869549262473e-03 
  2.823399749666e-03 
  2.650910434887e-03 
  2.457125430726e-03 
  2.231761990030e-03 
  1.972830747321e-03 
  2.746173663660e-03 
  2.564095272469e-03 
  2.359073758264e-03 
  2.121491249205e-03 
  2.697718733490e-03 
  2.511492628146e-03 
  2.304017084013e-03 
  2.680067219583e-03 
  2.497233500504e-03 
  2.685834250370e-03 
  4.446951202813e-03 
  4.330161236482e-03 
  4.233697723335e-03 
  4.143553293360e-03 
  4.055238507258e-03 
  3.969403818522e-03 
  4.344045218548e-03 
  4.253272752626e-03 
  4.160143253523e-03 
  4.072760208946e-03 
  3.979958143061e-03 
  4.267711265845e-03 
  4.179798255831e-03 
  4.092431123639e-03 
  3.995536142062e-03 
  4.196227912443e-03 
  4.109871243062e-03 
  4.024322504825e-03 
  4.131300856756e-03 
  4.056550873862e-03 
  4.129862328275e-03 
  4.051495231140e-03 
  3.787096059758e-03 
  3.762103099139e-03 
  3.765042586922e-03 
  3.781393602477e-03 
  4.238139291727e-03 
  3.670503852688e-03 
  3.678254402172e-03 
  3.676503281524e-03 
  3.674471844318e-03 
  3.600818045941e-03 
  3.694857992795e-03 
  3.683136012460e-03 
  3.694508270861e-03 
  3.691744340269e-03 
  3.663555538467e-03 
  3.666756849183e-03 
  3.636376779457e-03 
  3.645912563209e-03 
  3.718289222810e-03 
  3.609785672122e-03 
  4.623152000111e-03 
  4.538544523564e-03 
  4.475628549129e-03 
  4.431100960599e-03 
  4.402474682485e-03 
  4.388877204503e-03 
  4.643794112523e-03 
  4.569740622394e-03 
  4.506520451297e-03 
  4.453505896639e-03 
  4.424102943317e-03 
  4.672454761545e-03 
  4.586542897714e-03 
  4.524052460909e-03 
  4.467836213494e-03 
  4.687648140765e-03 
  4.603372873348e-03 
  4.527841887820e-03 
  4.692839916763e-03 
  4.602689383642e-03 
  4.697487582487e-03 
  4.621296702949e-03 
  4.597403519955e-03 
  4.568563213647e-03 
  4.529356603964e-03 
  4.485320386975e-03 
  4.446069009297e-03 
  4.477703043096e-03 
  4.455554660614e-03 
  4.423004612310e-03 
  4.388843704926e-03 
  4.344043894287e-03 
  4.360071659991e-03 
  4.336977565359e-03 
  4.304222986407e-03 
  4.267340845289e-03 
  4.260264719287e-03 
  4.229462831289e-03 
  4.196176508206e-03 
  4.169125325882e-03 
  4.131080808302e-03 
  4.129959603984e-03 
  4.199918517189e-03 
  4.285523832866e-03 
  4.391973736027e-03 
  4.529935695064e-03 
  4.711655276497e-03 
  4.952943201729e-03 
  4.233595372843e-03 
  4.326540654576e-03 
  4.449234973191e-03 
  4.615386390139e-03 
  4.838747463740e-03 
  4.258955858252e-03 
  4.364378197942e-03 
  4.509978022307e-03 
  4.713400736978e-03 
  4.277928973942e-03 
  4.399148598810e-03 
  4.576832658211e-03 
  4.287332018807e-03 
  4.430258033396e-03 
  4.277021774905e-03 
  4.953014405982e-03 
  4.711666270922e-03 
  4.529912519786e-03 
  4.392003541834e-03 
  4.285489496248e-03 
  4.200100404567e-03 
  4.819506781195e-03 
  4.627220865838e-03 
  4.475489396261e-03 
  4.354602023229e-03 
  4.255641744818e-03 
  4.707361149990e-03 
  4.548499854160e-03 
  4.417799270547e-03 
  4.307857100744e-03 
  4.608885769395e-03 
  4.472580611400e-03 
  4.357957455661e-03 
  4.517913547508e-03 
  4.402820391528e-03 
  4.444783715335e-03 
  5.394324831815e-03 
  5.340614117218e-03 
  5.269774949668e-03 
  5.180984968398e-03 
  5.074539791891e-03 
  4.954089106919e-03 
  5.118141242493e-03 
  5.061855638463e-03 
  4.991576350053e-03 
  4.909895321570e-03 
  4.819324097090e-03 
  4.892596835664e-03 
  4.839566890488e-03 
  4.776654937643e-03 
  4.707486780039e-03 
  4.711769535298e-03 
  4.662980327014e-03 
  4.608745159666e-03 
  4.564095325576e-03 
  4.517824135737e-03 
  4.444166245488e-03 
  5.548637551173e-03 
  5.155970721975e-03 
  4.840429543855e-03 